n -t * -s 0  -x 100 -y 200 -Z 0 -z 25  -v circle -c black
n -t * -s 1  -x 100 -y 400 -Z 0 -z 25  -v circle -c black
n -t * -s 2  -x 270 -y 100 -Z 0 -z 25  -v circle -c black
n -t * -s 3  -x 440 -y 200 -Z 0 -z 25  -v circle -c black
n -t * -s 4  -x 440 -y 400 -Z 0 -z 25  -v circle -c black
n -t * -s 5  -x 270 -y 500 -Z 0 -z 25  -v circle -c black
n -t * -s 6  -x 270 -y 300 -Z 0 -z 25  -v circle -c black
n -t * -s 7  -x 610 -y 500 -Z 0 -z 25  -v circle -c black
n -t * -s 8  -x 780 -y 400 -Z 0 -z 25  -v circle -c black
n -t * -s 9  -x 780 -y 200 -Z 0 -z 25  -v circle -c black
n -t * -s 10  -x 610 -y 100 -Z 0 -z 25  -v circle -c black
n -t * -s 11  -x 10 -y 300 -Z 0 -z 25  -v circle -c black
n -t * -s 12  -x 10 -y 700 -Z 0 -z 25  -v circle -c black
V -t * -v 1.0a5 -a 0
W -t * -x 700 -y 700
A -t * -n 1 -p 0 -o 0x7fffffff -c 30 -a 1
A -t * -h 1 -m 1073741823 -s 0
+ -t 0.000000000 -s 0 -d -1 -p cbr -e 1000 -c 2 -a 0 -i 0 -k AGT 
- -t 0.000000000 -s 0 -d -1 -p cbr -e 1000 -c 2 -a 0 -i 0 -k AGT
h -t 0.000000000 -s 0 -d -1 -p cbr -e 1000 -c 2 -a 0 -i 0 -k AGT
+ -t 0.000006792 -s 0 -d 0 -p AODVUU -e 62 -c 2 -a 0 -i 1 -k RTR 
- -t 0.000006792 -s 0 -d 0 -p AODVUU -e 62 -c 2 -a 0 -i 1 -k RTR
h -t 0.000006792 -s 0 -d 0 -p AODVUU -e 62 -c 2 -a 0 -i 1 -k RTR
+ -t 0.000006792 -s 0 -d 0 -p AODVUU -e 62 -c 2 -a 0 -i 1 -k RTR 
- -t 0.000006792 -s 0 -d 0 -p AODVUU -e 62 -c 2 -a 0 -i 1 -k RTR
h -t 0.000006792 -s 0 -d 0 -p AODVUU -e 62 -c 2 -a 0 -i 1 -k RTR
+ -t 0.000006792 -s 0 -d 0 -p AODVUU -e 62 -c 2 -a 0 -i 1 -k RTR 
- -t 0.000006792 -s 0 -d 0 -p AODVUU -e 62 -c 2 -a 0 -i 1 -k RTR
h -t 0.000006792 -s 0 -d 0 -p AODVUU -e 62 -c 2 -a 0 -i 1 -k RTR
+ -t 0.000284093 -s 0 -d 0 -p AODVUU -e 62 -c 2 -a 0 -i 3 -k RTR 
- -t 0.000284093 -s 0 -d 0 -p AODVUU -e 62 -c 2 -a 0 -i 3 -k RTR
h -t 0.000284093 -s 0 -d 0 -p AODVUU -e 62 -c 2 -a 0 -i 3 -k RTR
+ -t 0.000284093 -s 0 -d 0 -p AODVUU -e 62 -c 2 -a 0 -i 3 -k RTR 
- -t 0.000284093 -s 0 -d 0 -p AODVUU -e 62 -c 2 -a 0 -i 3 -k RTR
h -t 0.000284093 -s 0 -d 0 -p AODVUU -e 62 -c 2 -a 0 -i 3 -k RTR
+ -t 0.000284093 -s 0 -d 0 -p AODVUU -e 62 -c 2 -a 0 -i 3 -k RTR 
- -t 0.000284093 -s 0 -d 0 -p AODVUU -e 62 -c 2 -a 0 -i 3 -k RTR
h -t 0.000284093 -s 0 -d 0 -p AODVUU -e 62 -c 2 -a 0 -i 3 -k RTR
r -t 0.001067240 -s 11 -d 0 -p AODVUU -e 62 -c 2 -a 0 -i 1 -k RTR
r -t 0.001067449 -s 2 -d 0 -p AODVUU -e 62 -c 2 -a 0 -i 1 -k RTR
r -t 0.001067449 -s 6 -d 0 -p AODVUU -e 62 -c 2 -a 0 -i 1 -k RTR
r -t 0.001067458 -s 1 -d 0 -p AODVUU -e 62 -c 2 -a 0 -i 1 -k RTR
+ -t 0.001067458 -s 1 -d 0 -p AODVUU -e 62 -c 2 -a 0 -i 13 -k RTR 
- -t 0.001067458 -s 1 -d 0 -p AODVUU -e 62 -c 2 -a 0 -i 13 -k RTR
h -t 0.001067458 -s 1 -d 0 -p AODVUU -e 62 -c 2 -a 0 -i 13 -k RTR
r -t 0.001367240 -s 11 -d 0 -p AODVUU -e 62 -c 2 -a 0 -i 1 -k RTR
r -t 0.001367449 -s 2 -d 0 -p AODVUU -e 62 -c 2 -a 0 -i 1 -k RTR
r -t 0.001367449 -s 6 -d 0 -p AODVUU -e 62 -c 2 -a 0 -i 1 -k RTR
r -t 0.001367458 -s 1 -d 0 -p AODVUU -e 62 -c 2 -a 0 -i 1 -k RTR
+ -t 0.001367458 -s 1 -d 0 -p AODVUU -e 62 -c 2 -a 0 -i 14 -k RTR 
- -t 0.001367458 -s 1 -d 0 -p AODVUU -e 62 -c 2 -a 0 -i 14 -k RTR
h -t 0.001367458 -s 1 -d 0 -p AODVUU -e 62 -c 2 -a 0 -i 14 -k RTR
r -t 0.001387240 -s 11 -d 0 -p AODVUU -e 62 -c 2 -a 0 -i 1 -k RTR
r -t 0.001387449 -s 2 -d 0 -p AODVUU -e 62 -c 2 -a 0 -i 1 -k RTR
r -t 0.001387449 -s 6 -d 0 -p AODVUU -e 62 -c 2 -a 0 -i 1 -k RTR
r -t 0.001387458 -s 1 -d 0 -p AODVUU -e 62 -c 2 -a 0 -i 1 -k RTR
+ -t 0.001923340 -s 6 -d 0 -p AODVUU -e 62 -c 2 -a 0 -i 10 -k RTR 
- -t 0.001923340 -s 6 -d 0 -p AODVUU -e 62 -c 2 -a 0 -i 10 -k RTR
h -t 0.001923340 -s 6 -d 0 -p AODVUU -e 62 -c 2 -a 0 -i 10 -k RTR
+ -t 0.001923340 -s 6 -d 0 -p AODVUU -e 62 -c 2 -a 0 -i 10 -k RTR 
- -t 0.001923340 -s 6 -d 0 -p AODVUU -e 62 -c 2 -a 0 -i 10 -k RTR
h -t 0.001923340 -s 6 -d 0 -p AODVUU -e 62 -c 2 -a 0 -i 10 -k RTR
+ -t 0.001923340 -s 6 -d 0 -p AODVUU -e 62 -c 2 -a 0 -i 10 -k RTR 
- -t 0.001923340 -s 6 -d 0 -p AODVUU -e 62 -c 2 -a 0 -i 10 -k RTR
h -t 0.001923340 -s 6 -d 0 -p AODVUU -e 62 -c 2 -a 0 -i 10 -k RTR
r -t 0.002237240 -s 11 -d 0 -p AODVUU -e 62 -c 2 -a 0 -i 3 -k RTR
r -t 0.002237449 -s 2 -d 0 -p AODVUU -e 62 -c 2 -a 0 -i 3 -k RTR
r -t 0.002237449 -s 6 -d 0 -p AODVUU -e 62 -c 2 -a 0 -i 3 -k RTR
r -t 0.002237458 -s 1 -d 0 -p AODVUU -e 62 -c 2 -a 0 -i 3 -k RTR
r -t 0.002537240 -s 11 -d 0 -p AODVUU -e 62 -c 2 -a 0 -i 3 -k RTR
r -t 0.002537449 -s 2 -d 0 -p AODVUU -e 62 -c 2 -a 0 -i 3 -k RTR
r -t 0.002537449 -s 6 -d 0 -p AODVUU -e 62 -c 2 -a 0 -i 3 -k RTR
r -t 0.002537458 -s 1 -d 0 -p AODVUU -e 62 -c 2 -a 0 -i 3 -k RTR
r -t 0.002877240 -s 11 -d 0 -p AODVUU -e 62 -c 2 -a 0 -i 3 -k RTR
r -t 0.002877449 -s 2 -d 0 -p AODVUU -e 62 -c 2 -a 0 -i 3 -k RTR
r -t 0.002877449 -s 6 -d 0 -p AODVUU -e 62 -c 2 -a 0 -i 3 -k RTR
r -t 0.002877458 -s 1 -d 0 -p AODVUU -e 62 -c 2 -a 0 -i 3 -k RTR
+ -t 0.003343614 -s 6 -d 0 -p AODVUU -e 62 -c 2 -a 0 -i 12 -k RTR 
- -t 0.003343614 -s 6 -d 0 -p AODVUU -e 62 -c 2 -a 0 -i 12 -k RTR
h -t 0.003343614 -s 6 -d 0 -p AODVUU -e 62 -c 2 -a 0 -i 12 -k RTR
+ -t 0.003343614 -s 6 -d 0 -p AODVUU -e 62 -c 2 -a 0 -i 12 -k RTR 
- -t 0.003343614 -s 6 -d 0 -p AODVUU -e 62 -c 2 -a 0 -i 12 -k RTR
h -t 0.003343614 -s 6 -d 0 -p AODVUU -e 62 -c 2 -a 0 -i 12 -k RTR
+ -t 0.003343614 -s 6 -d 0 -p AODVUU -e 62 -c 2 -a 0 -i 12 -k RTR 
- -t 0.003343614 -s 6 -d 0 -p AODVUU -e 62 -c 2 -a 0 -i 12 -k RTR
h -t 0.003343614 -s 6 -d 0 -p AODVUU -e 62 -c 2 -a 0 -i 12 -k RTR
r -t 0.004088106 -s 1 -d 0 -p AODVUU -e 62 -c 2 -a 0 -i 10 -k RTR
r -t 0.004088106 -s 0 -d 0 -p AODVUU -e 62 -c 2 -a 0 -i 10 -k RTR
r -t 0.004088106 -s 3 -d 0 -p AODVUU -e 62 -c 2 -a 0 -i 10 -k RTR
r -t 0.004088106 -s 4 -d 0 -p AODVUU -e 62 -c 2 -a 0 -i 10 -k RTR
r -t 0.004088116 -s 5 -d 0 -p AODVUU -e 62 -c 2 -a 0 -i 10 -k RTR
r -t 0.004088116 -s 2 -d 0 -p AODVUU -e 62 -c 2 -a 0 -i 10 -k RTR
r -t 0.004206773 -s 1 -d 0 -p AODVUU -e 62 -c 2 -a 0 -i 10 -k RTR
r -t 0.004206773 -s 0 -d 0 -p AODVUU -e 62 -c 2 -a 0 -i 10 -k RTR
r -t 0.004206773 -s 3 -d 0 -p AODVUU -e 62 -c 2 -a 0 -i 10 -k RTR
r -t 0.004206773 -s 4 -d 0 -p AODVUU -e 62 -c 2 -a 0 -i 10 -k RTR
r -t 0.004206782 -s 5 -d 0 -p AODVUU -e 62 -c 2 -a 0 -i 10 -k RTR
r -t 0.004206782 -s 2 -d 0 -p AODVUU -e 62 -c 2 -a 0 -i 10 -k RTR
+ -t 0.004350357 -s 2 -d 0 -p AODVUU -e 62 -c 2 -a 0 -i 9 -k RTR 
- -t 0.004350357 -s 2 -d 0 -p AODVUU -e 62 -c 2 -a 0 -i 9 -k RTR
h -t 0.004350357 -s 2 -d 0 -p AODVUU -e 62 -c 2 -a 0 -i 9 -k RTR
+ -t 0.004350357 -s 2 -d 0 -p AODVUU -e 62 -c 2 -a 0 -i 9 -k RTR 
- -t 0.004350357 -s 2 -d 0 -p AODVUU -e 62 -c 2 -a 0 -i 9 -k RTR
h -t 0.004350357 -s 2 -d 0 -p AODVUU -e 62 -c 2 -a 0 -i 9 -k RTR
+ -t 0.004350357 -s 2 -d 0 -p AODVUU -e 62 -c 2 -a 0 -i 9 -k RTR 
- -t 0.004350357 -s 2 -d 0 -p AODVUU -e 62 -c 2 -a 0 -i 9 -k RTR
h -t 0.004350357 -s 2 -d 0 -p AODVUU -e 62 -c 2 -a 0 -i 9 -k RTR
r -t 0.005611015 -s 0 -d 0 -p AODVUU -e 62 -c 2 -a 0 -i 9 -k RTR
r -t 0.005611015 -s 3 -d 0 -p AODVUU -e 62 -c 2 -a 0 -i 9 -k RTR
r -t 0.005611024 -s 6 -d 0 -p AODVUU -e 62 -c 2 -a 0 -i 9 -k RTR
+ -t 0.005759275 -s 11 -d 0 -p AODVUU -e 62 -c 2 -a 0 -i 5 -k RTR 
- -t 0.005759275 -s 11 -d 0 -p AODVUU -e 62 -c 2 -a 0 -i 5 -k RTR
h -t 0.005759275 -s 11 -d 0 -p AODVUU -e 62 -c 2 -a 0 -i 5 -k RTR
+ -t 0.005759275 -s 11 -d 0 -p AODVUU -e 62 -c 2 -a 0 -i 5 -k RTR 
- -t 0.005759275 -s 11 -d 0 -p AODVUU -e 62 -c 2 -a 0 -i 5 -k RTR
h -t 0.005759275 -s 11 -d 0 -p AODVUU -e 62 -c 2 -a 0 -i 5 -k RTR
+ -t 0.005759275 -s 11 -d 0 -p AODVUU -e 62 -c 2 -a 0 -i 5 -k RTR 
- -t 0.005759275 -s 11 -d 0 -p AODVUU -e 62 -c 2 -a 0 -i 5 -k RTR
h -t 0.005759275 -s 11 -d 0 -p AODVUU -e 62 -c 2 -a 0 -i 5 -k RTR
r -t 0.005933292 -s 1 -d 0 -p AODVUU -e 62 -c 2 -a 0 -i 10 -k RTR
r -t 0.005933292 -s 0 -d 0 -p AODVUU -e 62 -c 2 -a 0 -i 10 -k RTR
r -t 0.005933292 -s 3 -d 0 -p AODVUU -e 62 -c 2 -a 0 -i 10 -k RTR
r -t 0.005933292 -s 4 -d 0 -p AODVUU -e 62 -c 2 -a 0 -i 10 -k RTR
r -t 0.005933301 -s 5 -d 0 -p AODVUU -e 62 -c 2 -a 0 -i 10 -k RTR
r -t 0.005933301 -s 2 -d 0 -p AODVUU -e 62 -c 2 -a 0 -i 10 -k RTR
+ -t 0.006272085 -s 5 -d 0 -p AODVUU -e 62 -c 2 -a 0 -i 21 -k RTR 
- -t 0.006272085 -s 5 -d 0 -p AODVUU -e 62 -c 2 -a 0 -i 21 -k RTR
h -t 0.006272085 -s 5 -d 0 -p AODVUU -e 62 -c 2 -a 0 -i 21 -k RTR
+ -t 0.006272085 -s 5 -d 0 -p AODVUU -e 62 -c 2 -a 0 -i 21 -k RTR 
- -t 0.006272085 -s 5 -d 0 -p AODVUU -e 62 -c 2 -a 0 -i 21 -k RTR
h -t 0.006272085 -s 5 -d 0 -p AODVUU -e 62 -c 2 -a 0 -i 21 -k RTR
+ -t 0.006272085 -s 5 -d 0 -p AODVUU -e 62 -c 2 -a 0 -i 21 -k RTR 
- -t 0.006272085 -s 5 -d 0 -p AODVUU -e 62 -c 2 -a 0 -i 21 -k RTR
h -t 0.006272085 -s 5 -d 0 -p AODVUU -e 62 -c 2 -a 0 -i 21 -k RTR
r -t 0.006661681 -s 1 -d 0 -p AODVUU -e 62 -c 2 -a 0 -i 12 -k RTR
r -t 0.006661681 -s 0 -d 0 -p AODVUU -e 62 -c 2 -a 0 -i 12 -k RTR
r -t 0.006661681 -s 3 -d 0 -p AODVUU -e 62 -c 2 -a 0 -i 12 -k RTR
r -t 0.006661681 -s 4 -d 0 -p AODVUU -e 62 -c 2 -a 0 -i 12 -k RTR
r -t 0.006661690 -s 5 -d 0 -p AODVUU -e 62 -c 2 -a 0 -i 12 -k RTR
r -t 0.006661690 -s 2 -d 0 -p AODVUU -e 62 -c 2 -a 0 -i 12 -k RTR
r -t 0.006943292 -s 1 -d 0 -p AODVUU -e 62 -c 2 -a 0 -i 12 -k RTR
r -t 0.006943292 -s 0 -d 0 -p AODVUU -e 62 -c 2 -a 0 -i 12 -k RTR
r -t 0.006943292 -s 3 -d 0 -p AODVUU -e 62 -c 2 -a 0 -i 12 -k RTR
r -t 0.006943292 -s 4 -d 0 -p AODVUU -e 62 -c 2 -a 0 -i 12 -k RTR
r -t 0.006943301 -s 5 -d 0 -p AODVUU -e 62 -c 2 -a 0 -i 12 -k RTR
r -t 0.006943301 -s 2 -d 0 -p AODVUU -e 62 -c 2 -a 0 -i 12 -k RTR
r -t 0.007063940 -s 1 -d 0 -p AODVUU -e 62 -c 2 -a 0 -i 12 -k RTR
r -t 0.007063940 -s 0 -d 0 -p AODVUU -e 62 -c 2 -a 0 -i 12 -k RTR
r -t 0.007063940 -s 3 -d 0 -p AODVUU -e 62 -c 2 -a 0 -i 12 -k RTR
r -t 0.007063940 -s 4 -d 0 -p AODVUU -e 62 -c 2 -a 0 -i 12 -k RTR
r -t 0.007063949 -s 5 -d 0 -p AODVUU -e 62 -c 2 -a 0 -i 12 -k RTR
r -t 0.007063949 -s 2 -d 0 -p AODVUU -e 62 -c 2 -a 0 -i 12 -k RTR
+ -t 0.007249030 -s 2 -d 0 -p AODVUU -e 62 -c 2 -a 0 -i 7 -k RTR 
- -t 0.007249030 -s 2 -d 0 -p AODVUU -e 62 -c 2 -a 0 -i 7 -k RTR
h -t 0.007249030 -s 2 -d 0 -p AODVUU -e 62 -c 2 -a 0 -i 7 -k RTR
+ -t 0.007249030 -s 2 -d 0 -p AODVUU -e 62 -c 2 -a 0 -i 7 -k RTR 
- -t 0.007249030 -s 2 -d 0 -p AODVUU -e 62 -c 2 -a 0 -i 7 -k RTR
h -t 0.007249030 -s 2 -d 0 -p AODVUU -e 62 -c 2 -a 0 -i 7 -k RTR
+ -t 0.007249030 -s 2 -d 0 -p AODVUU -e 62 -c 2 -a 0 -i 7 -k RTR 
- -t 0.007249030 -s 2 -d 0 -p AODVUU -e 62 -c 2 -a 0 -i 7 -k RTR
h -t 0.007249030 -s 2 -d 0 -p AODVUU -e 62 -c 2 -a 0 -i 7 -k RTR
+ -t 0.007835420 -s 5 -d 0 -p AODVUU -e 62 -c 2 -a 0 -i 23 -k RTR 
- -t 0.007835420 -s 5 -d 0 -p AODVUU -e 62 -c 2 -a 0 -i 23 -k RTR
h -t 0.007835420 -s 5 -d 0 -p AODVUU -e 62 -c 2 -a 0 -i 23 -k RTR
+ -t 0.007835420 -s 5 -d 0 -p AODVUU -e 62 -c 2 -a 0 -i 23 -k RTR 
- -t 0.007835420 -s 5 -d 0 -p AODVUU -e 62 -c 2 -a 0 -i 23 -k RTR
h -t 0.007835420 -s 5 -d 0 -p AODVUU -e 62 -c 2 -a 0 -i 23 -k RTR
+ -t 0.007835420 -s 5 -d 0 -p AODVUU -e 62 -c 2 -a 0 -i 23 -k RTR 
- -t 0.007835420 -s 5 -d 0 -p AODVUU -e 62 -c 2 -a 0 -i 23 -k RTR
h -t 0.007835420 -s 5 -d 0 -p AODVUU -e 62 -c 2 -a 0 -i 23 -k RTR
r -t 0.007892348 -s 1 -d 0 -p AODVUU -e 62 -c 2 -a 0 -i 21 -k RTR
r -t 0.007892348 -s 4 -d 0 -p AODVUU -e 62 -c 2 -a 0 -i 21 -k RTR
r -t 0.007892357 -s 6 -d 0 -p AODVUU -e 62 -c 2 -a 0 -i 21 -k RTR
+ -t 0.008073084 -s 3 -d 0 -p AODVUU -e 62 -c 2 -a 0 -i 26 -k RTR 
- -t 0.008073084 -s 3 -d 0 -p AODVUU -e 62 -c 2 -a 0 -i 26 -k RTR
h -t 0.008073084 -s 3 -d 0 -p AODVUU -e 62 -c 2 -a 0 -i 26 -k RTR
+ -t 0.008073084 -s 3 -d 0 -p AODVUU -e 62 -c 2 -a 0 -i 26 -k RTR 
- -t 0.008073084 -s 3 -d 0 -p AODVUU -e 62 -c 2 -a 0 -i 26 -k RTR
h -t 0.008073084 -s 3 -d 0 -p AODVUU -e 62 -c 2 -a 0 -i 26 -k RTR
+ -t 0.008073084 -s 3 -d 0 -p AODVUU -e 62 -c 2 -a 0 -i 26 -k RTR 
- -t 0.008073084 -s 3 -d 0 -p AODVUU -e 62 -c 2 -a 0 -i 26 -k RTR
h -t 0.008073084 -s 3 -d 0 -p AODVUU -e 62 -c 2 -a 0 -i 26 -k RTR
r -t 0.008113958 -s 1 -d 0 -p AODVUU -e 62 -c 2 -a 0 -i 21 -k RTR
r -t 0.008113958 -s 4 -d 0 -p AODVUU -e 62 -c 2 -a 0 -i 21 -k RTR
r -t 0.008113967 -s 6 -d 0 -p AODVUU -e 62 -c 2 -a 0 -i 21 -k RTR
r -t 0.008154606 -s 1 -d 0 -p AODVUU -e 62 -c 2 -a 0 -i 21 -k RTR
r -t 0.008154606 -s 4 -d 0 -p AODVUU -e 62 -c 2 -a 0 -i 21 -k RTR
r -t 0.008154616 -s 6 -d 0 -p AODVUU -e 62 -c 2 -a 0 -i 21 -k RTR
+ -t 0.008912619 -s 3 -d 0 -p AODVUU -e 62 -c 2 -a 0 -i 15 -k RTR 
- -t 0.008912619 -s 3 -d 0 -p AODVUU -e 62 -c 2 -a 0 -i 15 -k RTR
h -t 0.008912619 -s 3 -d 0 -p AODVUU -e 62 -c 2 -a 0 -i 15 -k RTR
+ -t 0.008912619 -s 3 -d 0 -p AODVUU -e 62 -c 2 -a 0 -i 15 -k RTR 
- -t 0.008912619 -s 3 -d 0 -p AODVUU -e 62 -c 2 -a 0 -i 15 -k RTR
h -t 0.008912619 -s 3 -d 0 -p AODVUU -e 62 -c 2 -a 0 -i 15 -k RTR
+ -t 0.008912619 -s 3 -d 0 -p AODVUU -e 62 -c 2 -a 0 -i 15 -k RTR 
- -t 0.008912619 -s 3 -d 0 -p AODVUU -e 62 -c 2 -a 0 -i 15 -k RTR
h -t 0.008912619 -s 3 -d 0 -p AODVUU -e 62 -c 2 -a 0 -i 15 -k RTR
r -t 0.009143958 -s 1 -d 0 -p AODVUU -e 62 -c 2 -a 0 -i 23 -k RTR
r -t 0.009143958 -s 4 -d 0 -p AODVUU -e 62 -c 2 -a 0 -i 23 -k RTR
r -t 0.009143967 -s 6 -d 0 -p AODVUU -e 62 -c 2 -a 0 -i 23 -k RTR
r -t 0.009182348 -s 1 -d 0 -p AODVUU -e 62 -c 2 -a 0 -i 23 -k RTR
r -t 0.009182348 -s 4 -d 0 -p AODVUU -e 62 -c 2 -a 0 -i 23 -k RTR
r -t 0.009182357 -s 6 -d 0 -p AODVUU -e 62 -c 2 -a 0 -i 23 -k RTR
+ -t 0.009336829 -s 0 -d 1 -p cbr -e 1020 -c 2 -a 0 -i 0 -k RTR 
- -t 0.009336829 -s 0 -d 1 -p cbr -e 1020 -c 2 -a 0 -i 0 -k RTR
h -t 0.009336829 -s 0 -d 1 -p cbr -e 1020 -c 2 -a 0 -i 0 -k RTR
+ -t 0.010000000 -s 0 -d -1 -p cbr -e 1000 -c 2 -a 0 -i 27 -k AGT 
- -t 0.010000000 -s 0 -d -1 -p cbr -e 1000 -c 2 -a 0 -i 27 -k AGT
h -t 0.010000000 -s 0 -d -1 -p cbr -e 1000 -c 2 -a 0 -i 27 -k AGT
+ -t 0.010000000 -s 0 -d 1 -p cbr -e 1020 -c 2 -a 0 -i 27 -k RTR 
- -t 0.010000000 -s 0 -d 1 -p cbr -e 1020 -c 2 -a 0 -i 27 -k RTR
h -t 0.010000000 -s 0 -d 1 -p cbr -e 1020 -c 2 -a 0 -i 27 -k RTR
r -t 0.010797497 -s 6 -d 0 -p AODVUU -e 62 -c 2 -a 0 -i 26 -k RTR
r -t 0.010797497 -s 2 -d 0 -p AODVUU -e 62 -c 2 -a 0 -i 26 -k RTR
r -t 0.010797497 -s 10 -d 0 -p AODVUU -e 62 -c 2 -a 0 -i 26 -k RTR
r -t 0.010797507 -s 4 -d 0 -p AODVUU -e 62 -c 2 -a 0 -i 26 -k RTR
+ -t 0.011117614 -s 0 -d 0 -p AODVUU -e 62 -c 2 -a 0 -i 2 -k RTR 
- -t 0.011117614 -s 0 -d 0 -p AODVUU -e 62 -c 2 -a 0 -i 2 -k RTR
h -t 0.011117614 -s 0 -d 0 -p AODVUU -e 62 -c 2 -a 0 -i 2 -k RTR
+ -t 0.011117614 -s 0 -d 0 -p AODVUU -e 62 -c 2 -a 0 -i 2 -k RTR 
- -t 0.011117614 -s 0 -d 0 -p AODVUU -e 62 -c 2 -a 0 -i 2 -k RTR
h -t 0.011117614 -s 0 -d 0 -p AODVUU -e 62 -c 2 -a 0 -i 2 -k RTR
+ -t 0.011117614 -s 0 -d 0 -p AODVUU -e 62 -c 2 -a 0 -i 2 -k RTR 
- -t 0.011117614 -s 0 -d 0 -p AODVUU -e 62 -c 2 -a 0 -i 2 -k RTR
h -t 0.011117614 -s 0 -d 0 -p AODVUU -e 62 -c 2 -a 0 -i 2 -k RTR
r -t 0.011761321 -s 0 -d 0 -p AODVUU -e 62 -c 2 -a 0 -i 9 -k RTR
r -t 0.011761321 -s 3 -d 0 -p AODVUU -e 62 -c 2 -a 0 -i 9 -k RTR
r -t 0.011761330 -s 6 -d 0 -p AODVUU -e 62 -c 2 -a 0 -i 9 -k RTR
r -t 0.011868155 -s 0 -d 0 -p AODVUU -e 62 -c 2 -a 0 -i 7 -k RTR
r -t 0.011868155 -s 3 -d 0 -p AODVUU -e 62 -c 2 -a 0 -i 7 -k RTR
r -t 0.011868164 -s 6 -d 0 -p AODVUU -e 62 -c 2 -a 0 -i 7 -k RTR
+ -t 0.012172266 -s 5 -d 0 -p AODVUU -e 62 -c 2 -a 0 -i 22 -k RTR 
- -t 0.012172266 -s 5 -d 0 -p AODVUU -e 62 -c 2 -a 0 -i 22 -k RTR
h -t 0.012172266 -s 5 -d 0 -p AODVUU -e 62 -c 2 -a 0 -i 22 -k RTR
+ -t 0.012172266 -s 5 -d 0 -p AODVUU -e 62 -c 2 -a 0 -i 22 -k RTR 
- -t 0.012172266 -s 5 -d 0 -p AODVUU -e 62 -c 2 -a 0 -i 22 -k RTR
h -t 0.012172266 -s 5 -d 0 -p AODVUU -e 62 -c 2 -a 0 -i 22 -k RTR
+ -t 0.012172266 -s 5 -d 0 -p AODVUU -e 62 -c 2 -a 0 -i 22 -k RTR 
- -t 0.012172266 -s 5 -d 0 -p AODVUU -e 62 -c 2 -a 0 -i 22 -k RTR
h -t 0.012172266 -s 5 -d 0 -p AODVUU -e 62 -c 2 -a 0 -i 22 -k RTR
+ -t 0.012198488 -s 4 -d 0 -p AODVUU -e 62 -c 2 -a 0 -i 20 -k RTR 
- -t 0.012198488 -s 4 -d 0 -p AODVUU -e 62 -c 2 -a 0 -i 20 -k RTR
h -t 0.012198488 -s 4 -d 0 -p AODVUU -e 62 -c 2 -a 0 -i 20 -k RTR
+ -t 0.012198488 -s 4 -d 0 -p AODVUU -e 62 -c 2 -a 0 -i 20 -k RTR 
- -t 0.012198488 -s 4 -d 0 -p AODVUU -e 62 -c 2 -a 0 -i 20 -k RTR
h -t 0.012198488 -s 4 -d 0 -p AODVUU -e 62 -c 2 -a 0 -i 20 -k RTR
+ -t 0.012198488 -s 4 -d 0 -p AODVUU -e 62 -c 2 -a 0 -i 20 -k RTR 
- -t 0.012198488 -s 4 -d 0 -p AODVUU -e 62 -c 2 -a 0 -i 20 -k RTR
h -t 0.012198488 -s 4 -d 0 -p AODVUU -e 62 -c 2 -a 0 -i 20 -k RTR
+ -t 0.012324270 -s 3 -d 0 -p AODVUU -e 62 -c 2 -a 0 -i 25 -k RTR 
- -t 0.012324270 -s 3 -d 0 -p AODVUU -e 62 -c 2 -a 0 -i 25 -k RTR
h -t 0.012324270 -s 3 -d 0 -p AODVUU -e 62 -c 2 -a 0 -i 25 -k RTR
+ -t 0.012324270 -s 3 -d 0 -p AODVUU -e 62 -c 2 -a 0 -i 25 -k RTR 
- -t 0.012324270 -s 3 -d 0 -p AODVUU -e 62 -c 2 -a 0 -i 25 -k RTR
h -t 0.012324270 -s 3 -d 0 -p AODVUU -e 62 -c 2 -a 0 -i 25 -k RTR
+ -t 0.012324270 -s 3 -d 0 -p AODVUU -e 62 -c 2 -a 0 -i 25 -k RTR 
- -t 0.012324270 -s 3 -d 0 -p AODVUU -e 62 -c 2 -a 0 -i 25 -k RTR
h -t 0.012324270 -s 3 -d 0 -p AODVUU -e 62 -c 2 -a 0 -i 25 -k RTR
r -t 0.012352310 -s 1 -d 1 -p cbr -e 1000 -c 2 -a 0 -i 0 -k AGT
+ -t 0.012561500 -s 10 -d 0 -p AODVUU -e 62 -c 2 -a 0 -i 29 -k RTR 
- -t 0.012561500 -s 10 -d 0 -p AODVUU -e 62 -c 2 -a 0 -i 29 -k RTR
h -t 0.012561500 -s 10 -d 0 -p AODVUU -e 62 -c 2 -a 0 -i 29 -k RTR
+ -t 0.012561500 -s 10 -d 0 -p AODVUU -e 62 -c 2 -a 0 -i 29 -k RTR 
- -t 0.012561500 -s 10 -d 0 -p AODVUU -e 62 -c 2 -a 0 -i 29 -k RTR
h -t 0.012561500 -s 10 -d 0 -p AODVUU -e 62 -c 2 -a 0 -i 29 -k RTR
+ -t 0.012561500 -s 10 -d 0 -p AODVUU -e 62 -c 2 -a 0 -i 29 -k RTR 
- -t 0.012561500 -s 10 -d 0 -p AODVUU -e 62 -c 2 -a 0 -i 29 -k RTR
h -t 0.012561500 -s 10 -d 0 -p AODVUU -e 62 -c 2 -a 0 -i 29 -k RTR
r -t 0.012831769 -s 11 -d 0 -p AODVUU -e 62 -c 2 -a 0 -i 2 -k RTR
r -t 0.012831978 -s 2 -d 0 -p AODVUU -e 62 -c 2 -a 0 -i 2 -k RTR
r -t 0.012831978 -s 6 -d 0 -p AODVUU -e 62 -c 2 -a 0 -i 2 -k RTR
r -t 0.012831987 -s 1 -d 0 -p AODVUU -e 62 -c 2 -a 0 -i 2 -k RTR
r -t 0.012918812 -s 6 -d 0 -p AODVUU -e 62 -c 2 -a 0 -i 15 -k RTR
r -t 0.012918812 -s 2 -d 0 -p AODVUU -e 62 -c 2 -a 0 -i 15 -k RTR
r -t 0.012918812 -s 10 -d 0 -p AODVUU -e 62 -c 2 -a 0 -i 15 -k RTR
r -t 0.012918821 -s 4 -d 0 -p AODVUU -e 62 -c 2 -a 0 -i 15 -k RTR
+ -t 0.013844543 -s 11 -d 0 -p AODVUU -e 62 -c 2 -a 0 -i 6 -k RTR 
- -t 0.013844543 -s 11 -d 0 -p AODVUU -e 62 -c 2 -a 0 -i 6 -k RTR
h -t 0.013844543 -s 11 -d 0 -p AODVUU -e 62 -c 2 -a 0 -i 6 -k RTR
+ -t 0.013844543 -s 11 -d 0 -p AODVUU -e 62 -c 2 -a 0 -i 6 -k RTR 
- -t 0.013844543 -s 11 -d 0 -p AODVUU -e 62 -c 2 -a 0 -i 6 -k RTR
h -t 0.013844543 -s 11 -d 0 -p AODVUU -e 62 -c 2 -a 0 -i 6 -k RTR
+ -t 0.013844543 -s 11 -d 0 -p AODVUU -e 62 -c 2 -a 0 -i 6 -k RTR 
- -t 0.013844543 -s 11 -d 0 -p AODVUU -e 62 -c 2 -a 0 -i 6 -k RTR
h -t 0.013844543 -s 11 -d 0 -p AODVUU -e 62 -c 2 -a 0 -i 6 -k RTR
+ -t 0.013868802 -s 6 -d 0 -p AODVUU -e 62 -c 2 -a 0 -i 11 -k RTR 
- -t 0.013868802 -s 6 -d 0 -p AODVUU -e 62 -c 2 -a 0 -i 11 -k RTR
h -t 0.013868802 -s 6 -d 0 -p AODVUU -e 62 -c 2 -a 0 -i 11 -k RTR
+ -t 0.013868802 -s 6 -d 0 -p AODVUU -e 62 -c 2 -a 0 -i 11 -k RTR 
- -t 0.013868802 -s 6 -d 0 -p AODVUU -e 62 -c 2 -a 0 -i 11 -k RTR
h -t 0.013868802 -s 6 -d 0 -p AODVUU -e 62 -c 2 -a 0 -i 11 -k RTR
+ -t 0.013868802 -s 6 -d 0 -p AODVUU -e 62 -c 2 -a 0 -i 11 -k RTR 
- -t 0.013868802 -s 6 -d 0 -p AODVUU -e 62 -c 2 -a 0 -i 11 -k RTR
h -t 0.013868802 -s 6 -d 0 -p AODVUU -e 62 -c 2 -a 0 -i 11 -k RTR
r -t 0.013907450 -s 1 -d 0 -p AODVUU -e 62 -c 2 -a 0 -i 23 -k RTR
r -t 0.013907450 -s 4 -d 0 -p AODVUU -e 62 -c 2 -a 0 -i 23 -k RTR
r -t 0.013907460 -s 6 -d 0 -p AODVUU -e 62 -c 2 -a 0 -i 23 -k RTR
r -t 0.013922218 -s 0 -d 0 -p AODVUU -e 62 -c 2 -a 0 -i 5 -k RTR
r -t 0.013922218 -s 1 -d 0 -p AODVUU -e 62 -c 2 -a 0 -i 5 -k RTR
r -t 0.013968812 -s 6 -d 0 -p AODVUU -e 62 -c 2 -a 0 -i 25 -k RTR
r -t 0.013968812 -s 2 -d 0 -p AODVUU -e 62 -c 2 -a 0 -i 25 -k RTR
r -t 0.013968812 -s 10 -d 0 -p AODVUU -e 62 -c 2 -a 0 -i 25 -k RTR
r -t 0.013968821 -s 4 -d 0 -p AODVUU -e 62 -c 2 -a 0 -i 25 -k RTR
r -t 0.014747710 -s 9 -d 0 -p AODVUU -e 62 -c 2 -a 0 -i 29 -k RTR
+ -t 0.014814716 -s 9 -d 0 -p AODVUU -e 62 -c 2 -a 0 -i 32 -k RTR 
- -t 0.014814716 -s 9 -d 0 -p AODVUU -e 62 -c 2 -a 0 -i 32 -k RTR
h -t 0.014814716 -s 9 -d 0 -p AODVUU -e 62 -c 2 -a 0 -i 32 -k RTR
+ -t 0.014814716 -s 9 -d 0 -p AODVUU -e 62 -c 2 -a 0 -i 32 -k RTR 
- -t 0.014814716 -s 9 -d 0 -p AODVUU -e 62 -c 2 -a 0 -i 32 -k RTR
h -t 0.014814716 -s 9 -d 0 -p AODVUU -e 62 -c 2 -a 0 -i 32 -k RTR
+ -t 0.014814716 -s 9 -d 0 -p AODVUU -e 62 -c 2 -a 0 -i 32 -k RTR 
- -t 0.014814716 -s 9 -d 0 -p AODVUU -e 62 -c 2 -a 0 -i 32 -k RTR
h -t 0.014814716 -s 9 -d 0 -p AODVUU -e 62 -c 2 -a 0 -i 32 -k RTR
r -t 0.015089460 -s 1 -d 0 -p AODVUU -e 62 -c 2 -a 0 -i 11 -k RTR
r -t 0.015089460 -s 0 -d 0 -p AODVUU -e 62 -c 2 -a 0 -i 11 -k RTR
r -t 0.015089460 -s 3 -d 0 -p AODVUU -e 62 -c 2 -a 0 -i 11 -k RTR
r -t 0.015089460 -s 4 -d 0 -p AODVUU -e 62 -c 2 -a 0 -i 11 -k RTR
r -t 0.015089469 -s 5 -d 0 -p AODVUU -e 62 -c 2 -a 0 -i 11 -k RTR
r -t 0.015089469 -s 2 -d 0 -p AODVUU -e 62 -c 2 -a 0 -i 11 -k RTR
r -t 0.015159470 -s 1 -d 0 -p AODVUU -e 62 -c 2 -a 0 -i 11 -k RTR
r -t 0.015159470 -s 0 -d 0 -p AODVUU -e 62 -c 2 -a 0 -i 11 -k RTR
r -t 0.015159470 -s 3 -d 0 -p AODVUU -e 62 -c 2 -a 0 -i 11 -k RTR
r -t 0.015159470 -s 4 -d 0 -p AODVUU -e 62 -c 2 -a 0 -i 11 -k RTR
r -t 0.015159479 -s 5 -d 0 -p AODVUU -e 62 -c 2 -a 0 -i 11 -k RTR
r -t 0.015159479 -s 2 -d 0 -p AODVUU -e 62 -c 2 -a 0 -i 11 -k RTR
r -t 0.015372218 -s 0 -d 0 -p AODVUU -e 62 -c 2 -a 0 -i 6 -k RTR
r -t 0.015372218 -s 1 -d 0 -p AODVUU -e 62 -c 2 -a 0 -i 6 -k RTR
r -t 0.016015373 -s 10 -d 0 -p AODVUU -e 62 -c 2 -a 0 -i 32 -k RTR
r -t 0.016015383 -s 8 -d 0 -p AODVUU -e 62 -c 2 -a 0 -i 32 -k RTR
r -t 0.016140126 -s 0 -d 0 -p AODVUU -e 62 -c 2 -a 0 -i 9 -k RTR
r -t 0.016140126 -s 3 -d 0 -p AODVUU -e 62 -c 2 -a 0 -i 9 -k RTR
r -t 0.016140135 -s 6 -d 0 -p AODVUU -e 62 -c 2 -a 0 -i 9 -k RTR
r -t 0.016469918 -s 11 -d 0 -p AODVUU -e 62 -c 2 -a 0 -i 2 -k RTR
r -t 0.016470127 -s 2 -d 0 -p AODVUU -e 62 -c 2 -a 0 -i 2 -k RTR
r -t 0.016470127 -s 6 -d 0 -p AODVUU -e 62 -c 2 -a 0 -i 2 -k RTR
r -t 0.016470136 -s 1 -d 0 -p AODVUU -e 62 -c 2 -a 0 -i 2 -k RTR
r -t 0.016807520 -s 1 -d 0 -p AODVUU -e 62 -c 2 -a 0 -i 22 -k RTR
r -t 0.016807529 -s 6 -d 0 -p AODVUU -e 62 -c 2 -a 0 -i 22 -k RTR
r -t 0.016895211 -s 8 -d 0 -p AODVUU -e 62 -c 2 -a 0 -i 32 -k RTR
r -t 0.017150126 -s 0 -d 0 -p AODVUU -e 62 -c 2 -a 0 -i 7 -k RTR
r -t 0.017150126 -s 3 -d 0 -p AODVUU -e 62 -c 2 -a 0 -i 7 -k RTR
r -t 0.017150135 -s 6 -d 0 -p AODVUU -e 62 -c 2 -a 0 -i 7 -k RTR
+ -t 0.017396761 -s 11 -d 0 -p AODVUU -e 62 -c 2 -a 0 -i 4 -k RTR 
- -t 0.017396761 -s 11 -d 0 -p AODVUU -e 62 -c 2 -a 0 -i 4 -k RTR
h -t 0.017396761 -s 11 -d 0 -p AODVUU -e 62 -c 2 -a 0 -i 4 -k RTR
+ -t 0.017396761 -s 11 -d 0 -p AODVUU -e 62 -c 2 -a 0 -i 4 -k RTR 
- -t 0.017396761 -s 11 -d 0 -p AODVUU -e 62 -c 2 -a 0 -i 4 -k RTR
h -t 0.017396761 -s 11 -d 0 -p AODVUU -e 62 -c 2 -a 0 -i 4 -k RTR
+ -t 0.017396761 -s 11 -d 0 -p AODVUU -e 62 -c 2 -a 0 -i 4 -k RTR 
- -t 0.017396761 -s 11 -d 0 -p AODVUU -e 62 -c 2 -a 0 -i 4 -k RTR
h -t 0.017396761 -s 11 -d 0 -p AODVUU -e 62 -c 2 -a 0 -i 4 -k RTR
+ -t 0.017511562 -s 3 -d 0 -p AODVUU -e 62 -c 2 -a 0 -i 24 -k RTR 
- -t 0.017511562 -s 3 -d 0 -p AODVUU -e 62 -c 2 -a 0 -i 24 -k RTR
h -t 0.017511562 -s 3 -d 0 -p AODVUU -e 62 -c 2 -a 0 -i 24 -k RTR
+ -t 0.017511562 -s 3 -d 0 -p AODVUU -e 62 -c 2 -a 0 -i 24 -k RTR 
- -t 0.017511562 -s 3 -d 0 -p AODVUU -e 62 -c 2 -a 0 -i 24 -k RTR
h -t 0.017511562 -s 3 -d 0 -p AODVUU -e 62 -c 2 -a 0 -i 24 -k RTR
+ -t 0.017511562 -s 3 -d 0 -p AODVUU -e 62 -c 2 -a 0 -i 24 -k RTR 
- -t 0.017511562 -s 3 -d 0 -p AODVUU -e 62 -c 2 -a 0 -i 24 -k RTR
h -t 0.017511562 -s 3 -d 0 -p AODVUU -e 62 -c 2 -a 0 -i 24 -k RTR
r -t 0.017520366 -s 0 -d 0 -p AODVUU -e 62 -c 2 -a 0 -i 5 -k RTR
r -t 0.017520366 -s 1 -d 0 -p AODVUU -e 62 -c 2 -a 0 -i 5 -k RTR
+ -t 0.017635085 -s 3 -d 0 -p AODVUU -e 62 -c 2 -a 0 -i 17 -k RTR 
- -t 0.017635085 -s 3 -d 0 -p AODVUU -e 62 -c 2 -a 0 -i 17 -k RTR
h -t 0.017635085 -s 3 -d 0 -p AODVUU -e 62 -c 2 -a 0 -i 17 -k RTR
+ -t 0.017635085 -s 3 -d 0 -p AODVUU -e 62 -c 2 -a 0 -i 17 -k RTR 
- -t 0.017635085 -s 3 -d 0 -p AODVUU -e 62 -c 2 -a 0 -i 17 -k RTR
h -t 0.017635085 -s 3 -d 0 -p AODVUU -e 62 -c 2 -a 0 -i 17 -k RTR
+ -t 0.017635085 -s 3 -d 0 -p AODVUU -e 62 -c 2 -a 0 -i 17 -k RTR 
- -t 0.017635085 -s 3 -d 0 -p AODVUU -e 62 -c 2 -a 0 -i 17 -k RTR
h -t 0.017635085 -s 3 -d 0 -p AODVUU -e 62 -c 2 -a 0 -i 17 -k RTR
+ -t 0.017793920 -s 2 -d 0 -p AODVUU -e 62 -c 2 -a 0 -i 8 -k RTR 
- -t 0.017793920 -s 2 -d 0 -p AODVUU -e 62 -c 2 -a 0 -i 8 -k RTR
h -t 0.017793920 -s 2 -d 0 -p AODVUU -e 62 -c 2 -a 0 -i 8 -k RTR
+ -t 0.017793920 -s 2 -d 0 -p AODVUU -e 62 -c 2 -a 0 -i 8 -k RTR 
- -t 0.017793920 -s 2 -d 0 -p AODVUU -e 62 -c 2 -a 0 -i 8 -k RTR
h -t 0.017793920 -s 2 -d 0 -p AODVUU -e 62 -c 2 -a 0 -i 8 -k RTR
+ -t 0.017793920 -s 2 -d 0 -p AODVUU -e 62 -c 2 -a 0 -i 8 -k RTR 
- -t 0.017793920 -s 2 -d 0 -p AODVUU -e 62 -c 2 -a 0 -i 8 -k RTR
h -t 0.017793920 -s 2 -d 0 -p AODVUU -e 62 -c 2 -a 0 -i 8 -k RTR
r -t 0.018038187 -s 1 -d 0 -p AODVUU -e 62 -c 2 -a 0 -i 11 -k RTR
r -t 0.018038187 -s 0 -d 0 -p AODVUU -e 62 -c 2 -a 0 -i 11 -k RTR
r -t 0.018038187 -s 3 -d 0 -p AODVUU -e 62 -c 2 -a 0 -i 11 -k RTR
r -t 0.018038187 -s 4 -d 0 -p AODVUU -e 62 -c 2 -a 0 -i 11 -k RTR
r -t 0.018038196 -s 5 -d 0 -p AODVUU -e 62 -c 2 -a 0 -i 11 -k RTR
r -t 0.018038196 -s 2 -d 0 -p AODVUU -e 62 -c 2 -a 0 -i 11 -k RTR
r -t 0.018200575 -s 11 -d 0 -p AODVUU -e 62 -c 2 -a 0 -i 2 -k RTR
r -t 0.018200784 -s 2 -d 0 -p AODVUU -e 62 -c 2 -a 0 -i 2 -k RTR
r -t 0.018200784 -s 6 -d 0 -p AODVUU -e 62 -c 2 -a 0 -i 2 -k RTR
r -t 0.018200793 -s 1 -d 0 -p AODVUU -e 62 -c 2 -a 0 -i 2 -k RTR
r -t 0.018349859 -s 9 -d 0 -p AODVUU -e 62 -c 2 -a 0 -i 29 -k RTR
r -t 0.018550366 -s 0 -d 0 -p AODVUU -e 62 -c 2 -a 0 -i 4 -k RTR
r -t 0.018550366 -s 1 -d 0 -p AODVUU -e 62 -c 2 -a 0 -i 4 -k RTR
r -t 0.018845868 -s 8 -d 0 -p AODVUU -e 62 -c 2 -a 0 -i 32 -k RTR
r -t 0.019168844 -s 6 -d 0 -p AODVUU -e 62 -c 2 -a 0 -i 20 -k RTR
r -t 0.019168844 -s 5 -d 0 -p AODVUU -e 62 -c 2 -a 0 -i 20 -k RTR
r -t 0.019168844 -s 7 -d 0 -p AODVUU -e 62 -c 2 -a 0 -i 20 -k RTR
r -t 0.019168853 -s 3 -d 0 -p AODVUU -e 62 -c 2 -a 0 -i 20 -k RTR
+ -t 0.019221898 -s 10 -d 0 -p AODVUU -e 62 -c 2 -a 0 -i 28 -k RTR 
- -t 0.019221898 -s 10 -d 0 -p AODVUU -e 62 -c 2 -a 0 -i 28 -k RTR
h -t 0.019221898 -s 10 -d 0 -p AODVUU -e 62 -c 2 -a 0 -i 28 -k RTR
+ -t 0.019221898 -s 10 -d 0 -p AODVUU -e 62 -c 2 -a 0 -i 28 -k RTR 
- -t 0.019221898 -s 10 -d 0 -p AODVUU -e 62 -c 2 -a 0 -i 28 -k RTR
h -t 0.019221898 -s 10 -d 0 -p AODVUU -e 62 -c 2 -a 0 -i 28 -k RTR
+ -t 0.019221898 -s 10 -d 0 -p AODVUU -e 62 -c 2 -a 0 -i 28 -k RTR 
- -t 0.019221898 -s 10 -d 0 -p AODVUU -e 62 -c 2 -a 0 -i 28 -k RTR
h -t 0.019221898 -s 10 -d 0 -p AODVUU -e 62 -c 2 -a 0 -i 28 -k RTR
+ -t 0.019332744 -s 4 -d 0 -p AODVUU -e 62 -c 2 -a 0 -i 18 -k RTR 
- -t 0.019332744 -s 4 -d 0 -p AODVUU -e 62 -c 2 -a 0 -i 18 -k RTR
h -t 0.019332744 -s 4 -d 0 -p AODVUU -e 62 -c 2 -a 0 -i 18 -k RTR
+ -t 0.019332744 -s 4 -d 0 -p AODVUU -e 62 -c 2 -a 0 -i 18 -k RTR 
- -t 0.019332744 -s 4 -d 0 -p AODVUU -e 62 -c 2 -a 0 -i 18 -k RTR
h -t 0.019332744 -s 4 -d 0 -p AODVUU -e 62 -c 2 -a 0 -i 18 -k RTR
+ -t 0.019332744 -s 4 -d 0 -p AODVUU -e 62 -c 2 -a 0 -i 18 -k RTR 
- -t 0.019332744 -s 4 -d 0 -p AODVUU -e 62 -c 2 -a 0 -i 18 -k RTR
h -t 0.019332744 -s 4 -d 0 -p AODVUU -e 62 -c 2 -a 0 -i 18 -k RTR
r -t 0.019986047 -s 6 -d 0 -p AODVUU -e 62 -c 2 -a 0 -i 24 -k RTR
r -t 0.019986047 -s 2 -d 0 -p AODVUU -e 62 -c 2 -a 0 -i 24 -k RTR
r -t 0.019986047 -s 10 -d 0 -p AODVUU -e 62 -c 2 -a 0 -i 24 -k RTR
r -t 0.019986056 -s 4 -d 0 -p AODVUU -e 62 -c 2 -a 0 -i 24 -k RTR
+ -t 0.020000000 -s 0 -d -1 -p cbr -e 1000 -c 2 -a 0 -i 40 -k AGT 
- -t 0.020000000 -s 0 -d -1 -p cbr -e 1000 -c 2 -a 0 -i 40 -k AGT
h -t 0.020000000 -s 0 -d -1 -p cbr -e 1000 -c 2 -a 0 -i 40 -k AGT
+ -t 0.020000000 -s 0 -d 1 -p cbr -e 1020 -c 2 -a 0 -i 40 -k RTR 
- -t 0.020000000 -s 0 -d 1 -p cbr -e 1020 -c 2 -a 0 -i 40 -k RTR
h -t 0.020000000 -s 0 -d 1 -p cbr -e 1020 -c 2 -a 0 -i 40 -k RTR
r -t 0.020479511 -s 6 -d 0 -p AODVUU -e 62 -c 2 -a 0 -i 26 -k RTR
r -t 0.020479511 -s 2 -d 0 -p AODVUU -e 62 -c 2 -a 0 -i 26 -k RTR
r -t 0.020479511 -s 10 -d 0 -p AODVUU -e 62 -c 2 -a 0 -i 26 -k RTR
r -t 0.020479520 -s 4 -d 0 -p AODVUU -e 62 -c 2 -a 0 -i 26 -k RTR
r -t 0.020701608 -s 1 -d 1 -p cbr -e 1000 -c 2 -a 0 -i 27 -k AGT
+ -t 0.020847490 -s 9 -d 0 -p AODVUU -e 62 -c 2 -a 0 -i 31 -k RTR 
- -t 0.020847490 -s 9 -d 0 -p AODVUU -e 62 -c 2 -a 0 -i 31 -k RTR
h -t 0.020847490 -s 9 -d 0 -p AODVUU -e 62 -c 2 -a 0 -i 31 -k RTR
+ -t 0.020847490 -s 9 -d 0 -p AODVUU -e 62 -c 2 -a 0 -i 31 -k RTR 
- -t 0.020847490 -s 9 -d 0 -p AODVUU -e 62 -c 2 -a 0 -i 31 -k RTR
h -t 0.020847490 -s 9 -d 0 -p AODVUU -e 62 -c 2 -a 0 -i 31 -k RTR
+ -t 0.020847490 -s 9 -d 0 -p AODVUU -e 62 -c 2 -a 0 -i 31 -k RTR 
- -t 0.020847490 -s 9 -d 0 -p AODVUU -e 62 -c 2 -a 0 -i 31 -k RTR
h -t 0.020847490 -s 9 -d 0 -p AODVUU -e 62 -c 2 -a 0 -i 31 -k RTR
r -t 0.021016714 -s 6 -d 0 -p AODVUU -e 62 -c 2 -a 0 -i 20 -k RTR
r -t 0.021016714 -s 5 -d 0 -p AODVUU -e 62 -c 2 -a 0 -i 20 -k RTR
r -t 0.021016714 -s 7 -d 0 -p AODVUU -e 62 -c 2 -a 0 -i 20 -k RTR
r -t 0.021016723 -s 3 -d 0 -p AODVUU -e 62 -c 2 -a 0 -i 20 -k RTR
+ -t 0.021110237 -s 3 -d 0 -p AODVUU -e 62 -c 2 -a 0 -i 16 -k RTR 
- -t 0.021110237 -s 3 -d 0 -p AODVUU -e 62 -c 2 -a 0 -i 16 -k RTR
h -t 0.021110237 -s 3 -d 0 -p AODVUU -e 62 -c 2 -a 0 -i 16 -k RTR
+ -t 0.021110237 -s 3 -d 0 -p AODVUU -e 62 -c 2 -a 0 -i 16 -k RTR 
- -t 0.021110237 -s 3 -d 0 -p AODVUU -e 62 -c 2 -a 0 -i 16 -k RTR
h -t 0.021110237 -s 3 -d 0 -p AODVUU -e 62 -c 2 -a 0 -i 16 -k RTR
+ -t 0.021110237 -s 3 -d 0 -p AODVUU -e 62 -c 2 -a 0 -i 16 -k RTR 
- -t 0.021110237 -s 3 -d 0 -p AODVUU -e 62 -c 2 -a 0 -i 16 -k RTR
h -t 0.021110237 -s 3 -d 0 -p AODVUU -e 62 -c 2 -a 0 -i 16 -k RTR
+ -t 0.021182407 -s 9 -d 0 -p AODVUU -e 62 -c 2 -a 0 -i 33 -k RTR 
- -t 0.021182407 -s 9 -d 0 -p AODVUU -e 62 -c 2 -a 0 -i 33 -k RTR
h -t 0.021182407 -s 9 -d 0 -p AODVUU -e 62 -c 2 -a 0 -i 33 -k RTR
+ -t 0.021182407 -s 9 -d 0 -p AODVUU -e 62 -c 2 -a 0 -i 33 -k RTR 
- -t 0.021182407 -s 9 -d 0 -p AODVUU -e 62 -c 2 -a 0 -i 33 -k RTR