n -t * -s 0  -x 100 -y 100 -Z 0 -z 25  -v circle -c black
n -t * -s 1  -x 300 -y 100 -Z 0 -z 25  -v circle -c black
n -t * -s 2  -x 500 -y 100 -Z 0 -z 25  -v circle -c black
n -t * -s 3  -x 700 -y 100 -Z 0 -z 25  -v circle -c black
n -t * -s 4  -x 900 -y 100 -Z 0 -z 25  -v circle -c black
n -t * -s 5  -x 1100 -y 100 -Z 0 -z 25  -v circle -c black
n -t * -s 6  -x 1300 -y 100 -Z 0 -z 25  -v circle -c black
n -t * -s 7  -x 1500 -y 100 -Z 0 -z 25  -v circle -c black
n -t * -s 8  -x 1700 -y 100 -Z 0 -z 25  -v circle -c black
n -t * -s 9  -x 1900 -y 100 -Z 0 -z 25  -v circle -c black
n -t * -s 10  -x 2100 -y 100 -Z 0 -z 25  -v circle -c black
n -t * -s 11  -x 1800 -y 200 -Z 0 -z 25  -v circle -c black
V -t * -v 1.0a5 -a 0
W -t * -x 2100 -y 400
A -t * -n 1 -p 0 -o 0x7fffffff -c 30 -a 1
A -t * -h 1 -m 1073741823 -s 0
+ -t 0.000000000 -s 0 -d -1 -p cbr -e 1000 -c 2 -a 0 -i 0 -k AGT 
- -t 0.000000000 -s 0 -d -1 -p cbr -e 1000 -c 2 -a 0 -i 0 -k AGT
h -t 0.000000000 -s 0 -d -1 -p cbr -e 1000 -c 2 -a 0 -i 0 -k AGT
+ -t 0.000006792 -s 0 -d 0 -p AODVUU -e 62 -c 2 -a 0 -i 1 -k RTR 
- -t 0.000006792 -s 0 -d 0 -p AODVUU -e 62 -c 2 -a 0 -i 1 -k RTR
h -t 0.000006792 -s 0 -d 0 -p AODVUU -e 62 -c 2 -a 0 -i 1 -k RTR
+ -t 0.000006792 -s 0 -d 0 -p AODVUU -e 62 -c 2 -a 0 -i 1 -k RTR 
- -t 0.000006792 -s 0 -d 0 -p AODVUU -e 62 -c 2 -a 0 -i 1 -k RTR
h -t 0.000006792 -s 0 -d 0 -p AODVUU -e 62 -c 2 -a 0 -i 1 -k RTR
+ -t 0.000006792 -s 0 -d 0 -p AODVUU -e 62 -c 2 -a 0 -i 1 -k RTR 
- -t 0.000006792 -s 0 -d 0 -p AODVUU -e 62 -c 2 -a 0 -i 1 -k RTR
h -t 0.000006792 -s 0 -d 0 -p AODVUU -e 62 -c 2 -a 0 -i 1 -k RTR
+ -t 0.000284093 -s 0 -d 0 -p AODVUU -e 62 -c 2 -a 0 -i 3 -k RTR 
- -t 0.000284093 -s 0 -d 0 -p AODVUU -e 62 -c 2 -a 0 -i 3 -k RTR
h -t 0.000284093 -s 0 -d 0 -p AODVUU -e 62 -c 2 -a 0 -i 3 -k RTR
+ -t 0.000284093 -s 0 -d 0 -p AODVUU -e 62 -c 2 -a 0 -i 3 -k RTR 
- -t 0.000284093 -s 0 -d 0 -p AODVUU -e 62 -c 2 -a 0 -i 3 -k RTR
h -t 0.000284093 -s 0 -d 0 -p AODVUU -e 62 -c 2 -a 0 -i 3 -k RTR
+ -t 0.000284093 -s 0 -d 0 -p AODVUU -e 62 -c 2 -a 0 -i 3 -k RTR 
- -t 0.000284093 -s 0 -d 0 -p AODVUU -e 62 -c 2 -a 0 -i 3 -k RTR
h -t 0.000284093 -s 0 -d 0 -p AODVUU -e 62 -c 2 -a 0 -i 3 -k RTR
r -t 0.001067458 -s 1 -d 0 -p AODVUU -e 62 -c 2 -a 0 -i 1 -k RTR
r -t 0.001367458 -s 1 -d 0 -p AODVUU -e 62 -c 2 -a 0 -i 1 -k RTR
r -t 0.001387458 -s 1 -d 0 -p AODVUU -e 62 -c 2 -a 0 -i 1 -k RTR
+ -t 0.002223349 -s 1 -d 0 -p AODVUU -e 62 -c 2 -a 0 -i 8 -k RTR 
- -t 0.002223349 -s 1 -d 0 -p AODVUU -e 62 -c 2 -a 0 -i 8 -k RTR
h -t 0.002223349 -s 1 -d 0 -p AODVUU -e 62 -c 2 -a 0 -i 8 -k RTR
+ -t 0.002223349 -s 1 -d 0 -p AODVUU -e 62 -c 2 -a 0 -i 8 -k RTR 
- -t 0.002223349 -s 1 -d 0 -p AODVUU -e 62 -c 2 -a 0 -i 8 -k RTR
h -t 0.002223349 -s 1 -d 0 -p AODVUU -e 62 -c 2 -a 0 -i 8 -k RTR
+ -t 0.002223349 -s 1 -d 0 -p AODVUU -e 62 -c 2 -a 0 -i 8 -k RTR 
- -t 0.002223349 -s 1 -d 0 -p AODVUU -e 62 -c 2 -a 0 -i 8 -k RTR
h -t 0.002223349 -s 1 -d 0 -p AODVUU -e 62 -c 2 -a 0 -i 8 -k RTR
r -t 0.002237458 -s 1 -d 0 -p AODVUU -e 62 -c 2 -a 0 -i 3 -k RTR
r -t 0.002637458 -s 1 -d 0 -p AODVUU -e 62 -c 2 -a 0 -i 3 -k RTR
r -t 0.002637458 -s 1 -d 0 -p AODVUU -e 62 -c 2 -a 0 -i 3 -k RTR
r -t 0.003764016 -s 0 -d 0 -p AODVUU -e 62 -c 2 -a 0 -i 8 -k RTR
r -t 0.003764016 -s 2 -d 0 -p AODVUU -e 62 -c 2 -a 0 -i 8 -k RTR
r -t 0.003808125 -s 0 -d 0 -p AODVUU -e 62 -c 2 -a 0 -i 8 -k RTR
r -t 0.003808125 -s 2 -d 0 -p AODVUU -e 62 -c 2 -a 0 -i 8 -k RTR
r -t 0.003888125 -s 0 -d 0 -p AODVUU -e 62 -c 2 -a 0 -i 8 -k RTR
r -t 0.003888125 -s 2 -d 0 -p AODVUU -e 62 -c 2 -a 0 -i 8 -k RTR
+ -t 0.004650366 -s 1 -d 0 -p AODVUU -e 62 -c 2 -a 0 -i 7 -k RTR 
- -t 0.004650366 -s 1 -d 0 -p AODVUU -e 62 -c 2 -a 0 -i 7 -k RTR
h -t 0.004650366 -s 1 -d 0 -p AODVUU -e 62 -c 2 -a 0 -i 7 -k RTR
+ -t 0.004650366 -s 1 -d 0 -p AODVUU -e 62 -c 2 -a 0 -i 7 -k RTR 
- -t 0.004650366 -s 1 -d 0 -p AODVUU -e 62 -c 2 -a 0 -i 7 -k RTR
h -t 0.004650366 -s 1 -d 0 -p AODVUU -e 62 -c 2 -a 0 -i 7 -k RTR
+ -t 0.004650366 -s 1 -d 0 -p AODVUU -e 62 -c 2 -a 0 -i 7 -k RTR 
- -t 0.004650366 -s 1 -d 0 -p AODVUU -e 62 -c 2 -a 0 -i 7 -k RTR
h -t 0.004650366 -s 1 -d 0 -p AODVUU -e 62 -c 2 -a 0 -i 7 -k RTR
r -t 0.005751033 -s 0 -d 0 -p AODVUU -e 62 -c 2 -a 0 -i 7 -k RTR
r -t 0.005751033 -s 2 -d 0 -p AODVUU -e 62 -c 2 -a 0 -i 7 -k RTR
+ -t 0.005759493 -s 1 -d 0 -p AODVUU -e 62 -c 2 -a 0 -i 5 -k RTR 
- -t 0.005759493 -s 1 -d 0 -p AODVUU -e 62 -c 2 -a 0 -i 5 -k RTR
h -t 0.005759493 -s 1 -d 0 -p AODVUU -e 62 -c 2 -a 0 -i 5 -k RTR
+ -t 0.005759493 -s 1 -d 0 -p AODVUU -e 62 -c 2 -a 0 -i 5 -k RTR 
- -t 0.005759493 -s 1 -d 0 -p AODVUU -e 62 -c 2 -a 0 -i 5 -k RTR
h -t 0.005759493 -s 1 -d 0 -p AODVUU -e 62 -c 2 -a 0 -i 5 -k RTR
+ -t 0.005759493 -s 1 -d 0 -p AODVUU -e 62 -c 2 -a 0 -i 5 -k RTR 
- -t 0.005759493 -s 1 -d 0 -p AODVUU -e 62 -c 2 -a 0 -i 5 -k RTR
h -t 0.005759493 -s 1 -d 0 -p AODVUU -e 62 -c 2 -a 0 -i 5 -k RTR
r -t 0.006011033 -s 0 -d 0 -p AODVUU -e 62 -c 2 -a 0 -i 7 -k RTR
r -t 0.006011033 -s 2 -d 0 -p AODVUU -e 62 -c 2 -a 0 -i 7 -k RTR
r -t 0.006071033 -s 0 -d 0 -p AODVUU -e 62 -c 2 -a 0 -i 7 -k RTR
r -t 0.006071033 -s 2 -d 0 -p AODVUU -e 62 -c 2 -a 0 -i 7 -k RTR
r -t 0.007121033 -s 0 -d 0 -p AODVUU -e 62 -c 2 -a 0 -i 5 -k RTR
r -t 0.007121033 -s 2 -d 0 -p AODVUU -e 62 -c 2 -a 0 -i 5 -k RTR
r -t 0.007161033 -s 0 -d 0 -p AODVUU -e 62 -c 2 -a 0 -i 5 -k RTR
r -t 0.007161033 -s 2 -d 0 -p AODVUU -e 62 -c 2 -a 0 -i 5 -k RTR
r -t 0.007161033 -s 0 -d 0 -p AODVUU -e 62 -c 2 -a 0 -i 5 -k RTR
r -t 0.007161033 -s 2 -d 0 -p AODVUU -e 62 -c 2 -a 0 -i 5 -k RTR
+ -t 0.008925775 -s 2 -d 0 -p AODVUU -e 62 -c 2 -a 0 -i 10 -k RTR 
- -t 0.008925775 -s 2 -d 0 -p AODVUU -e 62 -c 2 -a 0 -i 10 -k RTR
h -t 0.008925775 -s 2 -d 0 -p AODVUU -e 62 -c 2 -a 0 -i 10 -k RTR
+ -t 0.008925775 -s 2 -d 0 -p AODVUU -e 62 -c 2 -a 0 -i 10 -k RTR 
- -t 0.008925775 -s 2 -d 0 -p AODVUU -e 62 -c 2 -a 0 -i 10 -k RTR
h -t 0.008925775 -s 2 -d 0 -p AODVUU -e 62 -c 2 -a 0 -i 10 -k RTR
+ -t 0.008925775 -s 2 -d 0 -p AODVUU -e 62 -c 2 -a 0 -i 10 -k RTR 
- -t 0.008925775 -s 2 -d 0 -p AODVUU -e 62 -c 2 -a 0 -i 10 -k RTR
h -t 0.008925775 -s 2 -d 0 -p AODVUU -e 62 -c 2 -a 0 -i 10 -k RTR
+ -t 0.010000000 -s 0 -d -1 -p cbr -e 1000 -c 2 -a 0 -i 16 -k AGT 
- -t 0.010000000 -s 0 -d -1 -p cbr -e 1000 -c 2 -a 0 -i 16 -k AGT
h -t 0.010000000 -s 0 -d -1 -p cbr -e 1000 -c 2 -a 0 -i 16 -k AGT
r -t 0.010186442 -s 1 -d 0 -p AODVUU -e 62 -c 2 -a 0 -i 10 -k RTR
r -t 0.010186442 -s 3 -d 0 -p AODVUU -e 62 -c 2 -a 0 -i 10 -k RTR
r -t 0.010206442 -s 1 -d 0 -p AODVUU -e 62 -c 2 -a 0 -i 10 -k RTR
r -t 0.010206442 -s 3 -d 0 -p AODVUU -e 62 -c 2 -a 0 -i 10 -k RTR
+ -t 0.010402608 -s 3 -d 0 -p AODVUU -e 62 -c 2 -a 0 -i 17 -k RTR 
- -t 0.010402608 -s 3 -d 0 -p AODVUU -e 62 -c 2 -a 0 -i 17 -k RTR
h -t 0.010402608 -s 3 -d 0 -p AODVUU -e 62 -c 2 -a 0 -i 17 -k RTR
+ -t 0.010402608 -s 3 -d 0 -p AODVUU -e 62 -c 2 -a 0 -i 17 -k RTR 
- -t 0.010402608 -s 3 -d 0 -p AODVUU -e 62 -c 2 -a 0 -i 17 -k RTR
h -t 0.010402608 -s 3 -d 0 -p AODVUU -e 62 -c 2 -a 0 -i 17 -k RTR
+ -t 0.010402608 -s 3 -d 0 -p AODVUU -e 62 -c 2 -a 0 -i 17 -k RTR 
- -t 0.010402608 -s 3 -d 0 -p AODVUU -e 62 -c 2 -a 0 -i 17 -k RTR
h -t 0.010402608 -s 3 -d 0 -p AODVUU -e 62 -c 2 -a 0 -i 17 -k RTR
r -t 0.010506442 -s 1 -d 0 -p AODVUU -e 62 -c 2 -a 0 -i 10 -k RTR
r -t 0.010506442 -s 3 -d 0 -p AODVUU -e 62 -c 2 -a 0 -i 10 -k RTR
+ -t 0.011117614 -s 0 -d 0 -p AODVUU -e 62 -c 2 -a 0 -i 2 -k RTR 
- -t 0.011117614 -s 0 -d 0 -p AODVUU -e 62 -c 2 -a 0 -i 2 -k RTR
h -t 0.011117614 -s 0 -d 0 -p AODVUU -e 62 -c 2 -a 0 -i 2 -k RTR
+ -t 0.011117614 -s 0 -d 0 -p AODVUU -e 62 -c 2 -a 0 -i 2 -k RTR 
- -t 0.011117614 -s 0 -d 0 -p AODVUU -e 62 -c 2 -a 0 -i 2 -k RTR
h -t 0.011117614 -s 0 -d 0 -p AODVUU -e 62 -c 2 -a 0 -i 2 -k RTR
+ -t 0.011117614 -s 0 -d 0 -p AODVUU -e 62 -c 2 -a 0 -i 2 -k RTR 
- -t 0.011117614 -s 0 -d 0 -p AODVUU -e 62 -c 2 -a 0 -i 2 -k RTR
h -t 0.011117614 -s 0 -d 0 -p AODVUU -e 62 -c 2 -a 0 -i 2 -k RTR
r -t 0.011643275 -s 2 -d 0 -p AODVUU -e 62 -c 2 -a 0 -i 17 -k RTR
r -t 0.011643275 -s 4 -d 0 -p AODVUU -e 62 -c 2 -a 0 -i 17 -k RTR
r -t 0.011743275 -s 2 -d 0 -p AODVUU -e 62 -c 2 -a 0 -i 17 -k RTR
r -t 0.011743275 -s 4 -d 0 -p AODVUU -e 62 -c 2 -a 0 -i 17 -k RTR
r -t 0.011797108 -s 2 -d 0 -p AODVUU -e 62 -c 2 -a 0 -i 17 -k RTR
r -t 0.011797108 -s 4 -d 0 -p AODVUU -e 62 -c 2 -a 0 -i 17 -k RTR
+ -t 0.011937730 -s 2 -d 0 -p AODVUU -e 62 -c 2 -a 0 -i 11 -k RTR 
- -t 0.011937730 -s 2 -d 0 -p AODVUU -e 62 -c 2 -a 0 -i 11 -k RTR
h -t 0.011937730 -s 2 -d 0 -p AODVUU -e 62 -c 2 -a 0 -i 11 -k RTR
+ -t 0.011937730 -s 2 -d 0 -p AODVUU -e 62 -c 2 -a 0 -i 11 -k RTR 
- -t 0.011937730 -s 2 -d 0 -p AODVUU -e 62 -c 2 -a 0 -i 11 -k RTR
h -t 0.011937730 -s 2 -d 0 -p AODVUU -e 62 -c 2 -a 0 -i 11 -k RTR
+ -t 0.011937730 -s 2 -d 0 -p AODVUU -e 62 -c 2 -a 0 -i 11 -k RTR 
- -t 0.011937730 -s 2 -d 0 -p AODVUU -e 62 -c 2 -a 0 -i 11 -k RTR
h -t 0.011937730 -s 2 -d 0 -p AODVUU -e 62 -c 2 -a 0 -i 11 -k RTR
+ -t 0.012194425 -s 4 -d 0 -p AODVUU -e 62 -c 2 -a 0 -i 21 -k RTR 
- -t 0.012194425 -s 4 -d 0 -p AODVUU -e 62 -c 2 -a 0 -i 21 -k RTR
h -t 0.012194425 -s 4 -d 0 -p AODVUU -e 62 -c 2 -a 0 -i 21 -k RTR
+ -t 0.012194425 -s 4 -d 0 -p AODVUU -e 62 -c 2 -a 0 -i 21 -k RTR 
- -t 0.012194425 -s 4 -d 0 -p AODVUU -e 62 -c 2 -a 0 -i 21 -k RTR
h -t 0.012194425 -s 4 -d 0 -p AODVUU -e 62 -c 2 -a 0 -i 21 -k RTR
+ -t 0.012194425 -s 4 -d 0 -p AODVUU -e 62 -c 2 -a 0 -i 21 -k RTR 
- -t 0.012194425 -s 4 -d 0 -p AODVUU -e 62 -c 2 -a 0 -i 21 -k RTR
h -t 0.012194425 -s 4 -d 0 -p AODVUU -e 62 -c 2 -a 0 -i 21 -k RTR
r -t 0.013275091 -s 3 -d 0 -p AODVUU -e 62 -c 2 -a 0 -i 21 -k RTR
r -t 0.013275091 -s 5 -d 0 -p AODVUU -e 62 -c 2 -a 0 -i 21 -k RTR
r -t 0.013495091 -s 3 -d 0 -p AODVUU -e 62 -c 2 -a 0 -i 21 -k RTR
r -t 0.013495091 -s 5 -d 0 -p AODVUU -e 62 -c 2 -a 0 -i 21 -k RTR
r -t 0.013735091 -s 3 -d 0 -p AODVUU -e 62 -c 2 -a 0 -i 21 -k RTR
r -t 0.013735091 -s 5 -d 0 -p AODVUU -e 62 -c 2 -a 0 -i 21 -k RTR
+ -t 0.013844761 -s 1 -d 0 -p AODVUU -e 62 -c 2 -a 0 -i 6 -k RTR 
- -t 0.013844761 -s 1 -d 0 -p AODVUU -e 62 -c 2 -a 0 -i 6 -k RTR
h -t 0.013844761 -s 1 -d 0 -p AODVUU -e 62 -c 2 -a 0 -i 6 -k RTR
+ -t 0.013844761 -s 1 -d 0 -p AODVUU -e 62 -c 2 -a 0 -i 6 -k RTR 
- -t 0.013844761 -s 1 -d 0 -p AODVUU -e 62 -c 2 -a 0 -i 6 -k RTR
h -t 0.013844761 -s 1 -d 0 -p AODVUU -e 62 -c 2 -a 0 -i 6 -k RTR
+ -t 0.013844761 -s 1 -d 0 -p AODVUU -e 62 -c 2 -a 0 -i 6 -k RTR 
- -t 0.013844761 -s 1 -d 0 -p AODVUU -e 62 -c 2 -a 0 -i 6 -k RTR
h -t 0.013844761 -s 1 -d 0 -p AODVUU -e 62 -c 2 -a 0 -i 6 -k RTR
+ -t 0.014136992 -s 2 -d 0 -p AODVUU -e 62 -c 2 -a 0 -i 12 -k RTR 
- -t 0.014136992 -s 2 -d 0 -p AODVUU -e 62 -c 2 -a 0 -i 12 -k RTR
h -t 0.014136992 -s 2 -d 0 -p AODVUU -e 62 -c 2 -a 0 -i 12 -k RTR
+ -t 0.014136992 -s 2 -d 0 -p AODVUU -e 62 -c 2 -a 0 -i 12 -k RTR 
- -t 0.014136992 -s 2 -d 0 -p AODVUU -e 62 -c 2 -a 0 -i 12 -k RTR
h -t 0.014136992 -s 2 -d 0 -p AODVUU -e 62 -c 2 -a 0 -i 12 -k RTR
+ -t 0.014136992 -s 2 -d 0 -p AODVUU -e 62 -c 2 -a 0 -i 12 -k RTR 
- -t 0.014136992 -s 2 -d 0 -p AODVUU -e 62 -c 2 -a 0 -i 12 -k RTR
h -t 0.014136992 -s 2 -d 0 -p AODVUU -e 62 -c 2 -a 0 -i 12 -k RTR
+ -t 0.014168811 -s 1 -d 0 -p AODVUU -e 62 -c 2 -a 0 -i 9 -k RTR 
- -t 0.014168811 -s 1 -d 0 -p AODVUU -e 62 -c 2 -a 0 -i 9 -k RTR
h -t 0.014168811 -s 1 -d 0 -p AODVUU -e 62 -c 2 -a 0 -i 9 -k RTR
+ -t 0.014168811 -s 1 -d 0 -p AODVUU -e 62 -c 2 -a 0 -i 9 -k RTR 
- -t 0.014168811 -s 1 -d 0 -p AODVUU -e 62 -c 2 -a 0 -i 9 -k RTR
h -t 0.014168811 -s 1 -d 0 -p AODVUU -e 62 -c 2 -a 0 -i 9 -k RTR
+ -t 0.014168811 -s 1 -d 0 -p AODVUU -e 62 -c 2 -a 0 -i 9 -k RTR 
- -t 0.014168811 -s 1 -d 0 -p AODVUU -e 62 -c 2 -a 0 -i 9 -k RTR
h -t 0.014168811 -s 1 -d 0 -p AODVUU -e 62 -c 2 -a 0 -i 9 -k RTR
+ -t 0.014277759 -s 5 -d 0 -p AODVUU -e 62 -c 2 -a 0 -i 23 -k RTR 
- -t 0.014277759 -s 5 -d 0 -p AODVUU -e 62 -c 2 -a 0 -i 23 -k RTR
h -t 0.014277759 -s 5 -d 0 -p AODVUU -e 62 -c 2 -a 0 -i 23 -k RTR
+ -t 0.014277759 -s 5 -d 0 -p AODVUU -e 62 -c 2 -a 0 -i 23 -k RTR 
- -t 0.014277759 -s 5 -d 0 -p AODVUU -e 62 -c 2 -a 0 -i 23 -k RTR
h -t 0.014277759 -s 5 -d 0 -p AODVUU -e 62 -c 2 -a 0 -i 23 -k RTR
+ -t 0.014277759 -s 5 -d 0 -p AODVUU -e 62 -c 2 -a 0 -i 23 -k RTR 
- -t 0.014277759 -s 5 -d 0 -p AODVUU -e 62 -c 2 -a 0 -i 23 -k RTR
h -t 0.014277759 -s 5 -d 0 -p AODVUU -e 62 -c 2 -a 0 -i 23 -k RTR
r -t 0.014850425 -s 1 -d 0 -p AODVUU -e 62 -c 2 -a 0 -i 11 -k RTR
r -t 0.014850425 -s 3 -d 0 -p AODVUU -e 62 -c 2 -a 0 -i 11 -k RTR
r -t 0.014910425 -s 1 -d 0 -p AODVUU -e 62 -c 2 -a 0 -i 11 -k RTR
r -t 0.014910425 -s 3 -d 0 -p AODVUU -e 62 -c 2 -a 0 -i 11 -k RTR
r -t 0.015105428 -s 0 -d 0 -p AODVUU -e 62 -c 2 -a 0 -i 6 -k RTR
r -t 0.015105428 -s 2 -d 0 -p AODVUU -e 62 -c 2 -a 0 -i 6 -k RTR
r -t 0.015458426 -s 6 -d 0 -p AODVUU -e 62 -c 2 -a 0 -i 23 -k RTR
r -t 0.015678426 -s 6 -d 0 -p AODVUU -e 62 -c 2 -a 0 -i 23 -k RTR
r -t 0.015920425 -s 1 -d 0 -p AODVUU -e 62 -c 2 -a 0 -i 12 -k RTR
r -t 0.015920425 -s 3 -d 0 -p AODVUU -e 62 -c 2 -a 0 -i 12 -k RTR
r -t 0.015938426 -s 4 -d 0 -p AODVUU -e 62 -c 2 -a 0 -i 23 -k RTR
r -t 0.015938426 -s 6 -d 0 -p AODVUU -e 62 -c 2 -a 0 -i 23 -k RTR
r -t 0.015981091 -s 0 -d 0 -p AODVUU -e 62 -c 2 -a 0 -i 6 -k RTR
r -t 0.015981091 -s 2 -d 0 -p AODVUU -e 62 -c 2 -a 0 -i 6 -k RTR
r -t 0.016235428 -s 0 -d 0 -p AODVUU -e 62 -c 2 -a 0 -i 9 -k RTR
r -t 0.016235428 -s 2 -d 0 -p AODVUU -e 62 -c 2 -a 0 -i 9 -k RTR
+ -t 0.016899697 -s 3 -d 0 -p AODVUU -e 62 -c 2 -a 0 -i 19 -k RTR 
- -t 0.016899697 -s 3 -d 0 -p AODVUU -e 62 -c 2 -a 0 -i 19 -k RTR
h -t 0.016899697 -s 3 -d 0 -p AODVUU -e 62 -c 2 -a 0 -i 19 -k RTR
+ -t 0.016899697 -s 3 -d 0 -p AODVUU -e 62 -c 2 -a 0 -i 19 -k RTR 
- -t 0.016899697 -s 3 -d 0 -p AODVUU -e 62 -c 2 -a 0 -i 19 -k RTR
h -t 0.016899697 -s 3 -d 0 -p AODVUU -e 62 -c 2 -a 0 -i 19 -k RTR
+ -t 0.016899697 -s 3 -d 0 -p AODVUU -e 62 -c 2 -a 0 -i 19 -k RTR 
- -t 0.016899697 -s 3 -d 0 -p AODVUU -e 62 -c 2 -a 0 -i 19 -k RTR
h -t 0.016899697 -s 3 -d 0 -p AODVUU -e 62 -c 2 -a 0 -i 19 -k RTR
r -t 0.017031091 -s 0 -d 0 -p AODVUU -e 62 -c 2 -a 0 -i 9 -k RTR
r -t 0.017031091 -s 2 -d 0 -p AODVUU -e 62 -c 2 -a 0 -i 9 -k RTR
r -t 0.017131091 -s 0 -d 0 -p AODVUU -e 62 -c 2 -a 0 -i 6 -k RTR
r -t 0.017131091 -s 2 -d 0 -p AODVUU -e 62 -c 2 -a 0 -i 6 -k RTR
+ -t 0.017396979 -s 1 -d 0 -p AODVUU -e 62 -c 2 -a 0 -i 4 -k RTR 
- -t 0.017396979 -s 1 -d 0 -p AODVUU -e 62 -c 2 -a 0 -i 4 -k RTR
h -t 0.017396979 -s 1 -d 0 -p AODVUU -e 62 -c 2 -a 0 -i 4 -k RTR
+ -t 0.017396979 -s 1 -d 0 -p AODVUU -e 62 -c 2 -a 0 -i 4 -k RTR 
- -t 0.017396979 -s 1 -d 0 -p AODVUU -e 62 -c 2 -a 0 -i 4 -k RTR
h -t 0.017396979 -s 1 -d 0 -p AODVUU -e 62 -c 2 -a 0 -i 4 -k RTR
+ -t 0.017396979 -s 1 -d 0 -p AODVUU -e 62 -c 2 -a 0 -i 4 -k RTR 
- -t 0.017396979 -s 1 -d 0 -p AODVUU -e 62 -c 2 -a 0 -i 4 -k RTR
h -t 0.017396979 -s 1 -d 0 -p AODVUU -e 62 -c 2 -a 0 -i 4 -k RTR
r -t 0.017426094 -s 1 -d 0 -p AODVUU -e 62 -c 2 -a 0 -i 11 -k RTR
r -t 0.017426094 -s 3 -d 0 -p AODVUU -e 62 -c 2 -a 0 -i 11 -k RTR
+ -t 0.017654262 -s 2 -d 0 -p AODVUU -e 62 -c 2 -a 0 -i 13 -k RTR 
- -t 0.017654262 -s 2 -d 0 -p AODVUU -e 62 -c 2 -a 0 -i 13 -k RTR
h -t 0.017654262 -s 2 -d 0 -p AODVUU -e 62 -c 2 -a 0 -i 13 -k RTR
+ -t 0.017654262 -s 2 -d 0 -p AODVUU -e 62 -c 2 -a 0 -i 13 -k RTR 
- -t 0.017654262 -s 2 -d 0 -p AODVUU -e 62 -c 2 -a 0 -i 13 -k RTR
h -t 0.017654262 -s 2 -d 0 -p AODVUU -e 62 -c 2 -a 0 -i 13 -k RTR
+ -t 0.017654262 -s 2 -d 0 -p AODVUU -e 62 -c 2 -a 0 -i 13 -k RTR 
- -t 0.017654262 -s 2 -d 0 -p AODVUU -e 62 -c 2 -a 0 -i 13 -k RTR
h -t 0.017654262 -s 2 -d 0 -p AODVUU -e 62 -c 2 -a 0 -i 13 -k RTR
+ -t 0.018189615 -s 4 -d 0 -p AODVUU -e 62 -c 2 -a 0 -i 22 -k RTR 
- -t 0.018189615 -s 4 -d 0 -p AODVUU -e 62 -c 2 -a 0 -i 22 -k RTR
h -t 0.018189615 -s 4 -d 0 -p AODVUU -e 62 -c 2 -a 0 -i 22 -k RTR
+ -t 0.018189615 -s 4 -d 0 -p AODVUU -e 62 -c 2 -a 0 -i 22 -k RTR 
- -t 0.018189615 -s 4 -d 0 -p AODVUU -e 62 -c 2 -a 0 -i 22 -k RTR
h -t 0.018189615 -s 4 -d 0 -p AODVUU -e 62 -c 2 -a 0 -i 22 -k RTR
+ -t 0.018189615 -s 4 -d 0 -p AODVUU -e 62 -c 2 -a 0 -i 22 -k RTR 
- -t 0.018189615 -s 4 -d 0 -p AODVUU -e 62 -c 2 -a 0 -i 22 -k RTR
h -t 0.018189615 -s 4 -d 0 -p AODVUU -e 62 -c 2 -a 0 -i 22 -k RTR
r -t 0.018481091 -s 0 -d 0 -p AODVUU -e 62 -c 2 -a 0 -i 4 -k RTR
r -t 0.018481091 -s 2 -d 0 -p AODVUU -e 62 -c 2 -a 0 -i 4 -k RTR
r -t 0.018541091 -s 0 -d 0 -p AODVUU -e 62 -c 2 -a 0 -i 9 -k RTR
r -t 0.018541091 -s 2 -d 0 -p AODVUU -e 62 -c 2 -a 0 -i 9 -k RTR
r -t 0.018556094 -s 1 -d 0 -p AODVUU -e 62 -c 2 -a 0 -i 12 -k RTR
r -t 0.018556094 -s 3 -d 0 -p AODVUU -e 62 -c 2 -a 0 -i 12 -k RTR
r -t 0.019390282 -s 5 -d 0 -p AODVUU -e 62 -c 2 -a 0 -i 22 -k RTR
r -t 0.019470282 -s 5 -d 0 -p AODVUU -e 62 -c 2 -a 0 -i 22 -k RTR
r -t 0.019646761 -s 2 -d 0 -p AODVUU -e 62 -c 2 -a 0 -i 19 -k RTR
r -t 0.019646761 -s 4 -d 0 -p AODVUU -e 62 -c 2 -a 0 -i 19 -k RTR
r -t 0.019871091 -s 0 -d 0 -p AODVUU -e 62 -c 2 -a 0 -i 4 -k RTR
r -t 0.019871091 -s 2 -d 0 -p AODVUU -e 62 -c 2 -a 0 -i 4 -k RTR
+ -t 0.020000000 -s 0 -d -1 -p cbr -e 1000 -c 2 -a 0 -i 29 -k AGT 
- -t 0.020000000 -s 0 -d -1 -p cbr -e 1000 -c 2 -a 0 -i 29 -k AGT
h -t 0.020000000 -s 0 -d -1 -p cbr -e 1000 -c 2 -a 0 -i 29 -k AGT
+ -t 0.020157021 -s 4 -d 0 -p AODVUU -e 62 -c 2 -a 0 -i 20 -k RTR 
- -t 0.020157021 -s 4 -d 0 -p AODVUU -e 62 -c 2 -a 0 -i 20 -k RTR
h -t 0.020157021 -s 4 -d 0 -p AODVUU -e 62 -c 2 -a 0 -i 20 -k RTR
+ -t 0.020157021 -s 4 -d 0 -p AODVUU -e 62 -c 2 -a 0 -i 20 -k RTR 
- -t 0.020157021 -s 4 -d 0 -p AODVUU -e 62 -c 2 -a 0 -i 20 -k RTR
h -t 0.020157021 -s 4 -d 0 -p AODVUU -e 62 -c 2 -a 0 -i 20 -k RTR
+ -t 0.020157021 -s 4 -d 0 -p AODVUU -e 62 -c 2 -a 0 -i 20 -k RTR 
- -t 0.020157021 -s 4 -d 0 -p AODVUU -e 62 -c 2 -a 0 -i 20 -k RTR
h -t 0.020157021 -s 4 -d 0 -p AODVUU -e 62 -c 2 -a 0 -i 20 -k RTR
+ -t 0.020604629 -s 2 -d 0 -p AODVUU -e 62 -c 2 -a 0 -i 15 -k RTR 
- -t 0.020604629 -s 2 -d 0 -p AODVUU -e 62 -c 2 -a 0 -i 15 -k RTR
h -t 0.020604629 -s 2 -d 0 -p AODVUU -e 62 -c 2 -a 0 -i 15 -k RTR
+ -t 0.020604629 -s 2 -d 0 -p AODVUU -e 62 -c 2 -a 0 -i 15 -k RTR 
- -t 0.020604629 -s 2 -d 0 -p AODVUU -e 62 -c 2 -a 0 -i 15 -k RTR
h -t 0.020604629 -s 2 -d 0 -p AODVUU -e 62 -c 2 -a 0 -i 15 -k RTR
+ -t 0.020604629 -s 2 -d 0 -p AODVUU -e 62 -c 2 -a 0 -i 15 -k RTR 
- -t 0.020604629 -s 2 -d 0 -p AODVUU -e 62 -c 2 -a 0 -i 15 -k RTR
h -t 0.020604629 -s 2 -d 0 -p AODVUU -e 62 -c 2 -a 0 -i 15 -k RTR
r -t 0.020657428 -s 3 -d 0 -p AODVUU -e 62 -c 2 -a 0 -i 22 -k RTR
r -t 0.020657428 -s 5 -d 0 -p AODVUU -e 62 -c 2 -a 0 -i 22 -k RTR
r -t 0.020845615 -s 1 -d 0 -p AODVUU -e 62 -c 2 -a 0 -i 12 -k RTR
r -t 0.020845615 -s 3 -d 0 -p AODVUU -e 62 -c 2 -a 0 -i 12 -k RTR
r -t 0.021041758 -s 1 -d 0 -p AODVUU -e 62 -c 2 -a 0 -i 13 -k RTR
r -t 0.021041758 -s 3 -d 0 -p AODVUU -e 62 -c 2 -a 0 -i 13 -k RTR
+ -t 0.021049470 -s 2 -d 0 -p AODVUU -e 62 -c 2 -a 0 -i 14 -k RTR 
- -t 0.021049470 -s 2 -d 0 -p AODVUU -e 62 -c 2 -a 0 -i 14 -k RTR
h -t 0.021049470 -s 2 -d 0 -p AODVUU -e 62 -c 2 -a 0 -i 14 -k RTR
+ -t 0.021049470 -s 2 -d 0 -p AODVUU -e 62 -c 2 -a 0 -i 14 -k RTR 
- -t 0.021049470 -s 2 -d 0 -p AODVUU -e 62 -c 2 -a 0 -i 14 -k RTR
h -t 0.021049470 -s 2 -d 0 -p AODVUU -e 62 -c 2 -a 0 -i 14 -k RTR
+ -t 0.021049470 -s 2 -d 0 -p AODVUU -e 62 -c 2 -a 0 -i 14 -k RTR 
- -t 0.021049470 -s 2 -d 0 -p AODVUU -e 62 -c 2 -a 0 -i 14 -k RTR
h -t 0.021049470 -s 2 -d 0 -p AODVUU -e 62 -c 2 -a 0 -i 14 -k RTR
r -t 0.021242094 -s 0 -d 0 -p AODVUU -e 62 -c 2 -a 0 -i 4 -k RTR
r -t 0.021767428 -s 3 -d 0 -p AODVUU -e 62 -c 2 -a 0 -i 20 -k RTR
r -t 0.021767428 -s 5 -d 0 -p AODVUU -e 62 -c 2 -a 0 -i 20 -k RTR
r -t 0.021855615 -s 1 -d 0 -p AODVUU -e 62 -c 2 -a 0 -i 15 -k RTR
r -t 0.021855615 -s 3 -d 0 -p AODVUU -e 62 -c 2 -a 0 -i 15 -k RTR
+ -t 0.022086989 -s 3 -d 0 -p AODVUU -e 62 -c 2 -a 0 -i 18 -k RTR 
- -t 0.022086989 -s 3 -d 0 -p AODVUU -e 62 -c 2 -a 0 -i 18 -k RTR
h -t 0.022086989 -s 3 -d 0 -p AODVUU -e 62 -c 2 -a 0 -i 18 -k RTR
+ -t 0.022086989 -s 3 -d 0 -p AODVUU -e 62 -c 2 -a 0 -i 18 -k RTR 
- -t 0.022086989 -s 3 -d 0 -p AODVUU -e 62 -c 2 -a 0 -i 18 -k RTR
h -t 0.022086989 -s 3 -d 0 -p AODVUU -e 62 -c 2 -a 0 -i 18 -k RTR
+ -t 0.022086989 -s 3 -d 0 -p AODVUU -e 62 -c 2 -a 0 -i 18 -k RTR 
- -t 0.022086989 -s 3 -d 0 -p AODVUU -e 62 -c 2 -a 0 -i 18 -k RTR
h -t 0.022086989 -s 3 -d 0 -p AODVUU -e 62 -c 2 -a 0 -i 18 -k RTR
r -t 0.022111758 -s 1 -d 0 -p AODVUU -e 62 -c 2 -a 0 -i 15 -k RTR
r -t 0.022111758 -s 3 -d 0 -p AODVUU -e 62 -c 2 -a 0 -i 15 -k RTR
r -t 0.022886282 -s 2 -d 0 -p AODVUU -e 62 -c 2 -a 0 -i 19 -k RTR
r -t 0.022886282 -s 4 -d 0 -p AODVUU -e 62 -c 2 -a 0 -i 19 -k RTR
r -t 0.023282425 -s 2 -d 0 -p AODVUU -e 62 -c 2 -a 0 -i 19 -k RTR
r -t 0.023282425 -s 4 -d 0 -p AODVUU -e 62 -c 2 -a 0 -i 19 -k RTR
r -t 0.023482761 -s 1 -d 0 -p AODVUU -e 62 -c 2 -a 0 -i 13 -k RTR
r -t 0.023482761 -s 3 -d 0 -p AODVUU -e 62 -c 2 -a 0 -i 13 -k RTR
+ -t 0.023933062 -s 5 -d 0 -p AODVUU -e 62 -c 2 -a 0 -i 25 -k RTR 
- -t 0.023933062 -s 5 -d 0 -p AODVUU -e 62 -c 2 -a 0 -i 25 -k RTR
h -t 0.023933062 -s 5 -d 0 -p AODVUU -e 62 -c 2 -a 0 -i 25 -k RTR
+ -t 0.023933062 -s 5 -d 0 -p AODVUU -e 62 -c 2 -a 0 -i 25 -k RTR 
- -t 0.023933062 -s 5 -d 0 -p AODVUU -e 62 -c 2 -a 0 -i 25 -k RTR
h -t 0.023933062 -s 5 -d 0 -p AODVUU -e 62 -c 2 -a 0 -i 25 -k RTR
+ -t 0.023933062 -s 5 -d 0 -p AODVUU -e 62 -c 2 -a 0 -i 25 -k RTR 
- -t 0.023933062 -s 5 -d 0 -p AODVUU -e 62 -c 2 -a 0 -i 25 -k RTR
h -t 0.023933062 -s 5 -d 0 -p AODVUU -e 62 -c 2 -a 0 -i 25 -k RTR
r -t 0.023936948 -s 1 -d 0 -p AODVUU -e 62 -c 2 -a 0 -i 14 -k RTR
r -t 0.023936948 -s 3 -d 0 -p AODVUU -e 62 -c 2 -a 0 -i 14 -k RTR
r -t 0.024513091 -s 1 -d 0 -p AODVUU -e 62 -c 2 -a 0 -i 14 -k RTR
r -t 0.024513091 -s 3 -d 0 -p AODVUU -e 62 -c 2 -a 0 -i 14 -k RTR
r -t 0.024613428 -s 2 -d 0 -p AODVUU -e 62 -c 2 -a 0 -i 18 -k RTR
r -t 0.024613428 -s 4 -d 0 -p AODVUU -e 62 -c 2 -a 0 -i 18 -k RTR
r -t 0.025126948 -s 1 -d 0 -p AODVUU -e 62 -c 2 -a 0 -i 13 -k RTR
r -t 0.025126948 -s 3 -d 0 -p AODVUU -e 62 -c 2 -a 0 -i 13 -k RTR
r -t 0.025133729 -s 6 -d 0 -p AODVUU -e 62 -c 2 -a 0 -i 25 -k RTR
r -t 0.025533729 -s 4 -d 0 -p AODVUU -e 62 -c 2 -a 0 -i 25 -k RTR
r -t 0.025533729 -s 6 -d 0 -p AODVUU -e 62 -c 2 -a 0 -i 25 -k RTR
r -t 0.025824094 -s 1 -d 0 -p AODVUU -e 62 -c 2 -a 0 -i 14 -k RTR
r -t 0.025824094 -s 3 -d 0 -p AODVUU -e 62 -c 2 -a 0 -i 14 -k RTR
r -t 0.026168761 -s 6 -d 0 -p AODVUU -e 62 -c 2 -a 0 -i 25 -k RTR
r -t 0.026528396 -s 3 -d 0 -p AODVUU -e 62 -c 2 -a 0 -i 20 -k RTR
r -t 0.026528396 -s 5 -d 0 -p AODVUU -e 62 -c 2 -a 0 -i 20 -k RTR
r -t 0.026584396 -s 3 -d 0 -p AODVUU -e 62 -c 2 -a 0 -i 20 -k RTR
r -t 0.026584396 -s 5 -d 0 -p AODVUU -e 62 -c 2 -a 0 -i 20 -k RTR
r -t 0.027394094 -s 1 -d 0 -p AODVUU -e 62 -c 2 -a 0 -i 15 -k RTR
r -t 0.027394094 -s 3 -d 0 -p AODVUU -e 62 -c 2 -a 0 -i 15 -k RTR
+ -t 0.027665998 -s 3 -d 0 -p AODVUU -e 62 -c 2 -a 0 -i 32 -k RTR 
- -t 0.027665998 -s 3 -d 0 -p AODVUU -e 62 -c 2 -a 0 -i 32 -k RTR
h -t 0.027665998 -s 3 -d 0 -p AODVUU -e 62 -c 2 -a 0 -i 32 -k RTR
+ -t 0.027665998 -s 3 -d 0 -p AODVUU -e 62 -c 2 -a 0 -i 32 -k RTR 
- -t 0.027665998 -s 3 -d 0 -p AODVUU -e 62 -c 2 -a 0 -i 32 -k RTR
h -t 0.027665998 -s 3 -d 0 -p AODVUU -e 62 -c 2 -a 0 -i 32 -k RTR
+ -t 0.027665998 -s 3 -d 0 -p AODVUU -e 62 -c 2 -a 0 -i 32 -k RTR 
- -t 0.027665998 -s 3 -d 0 -p AODVUU -e 62 -c 2 -a 0 -i 32 -k RTR
h -t 0.027665998 -s 3 -d 0 -p AODVUU -e 62 -c 2 -a 0 -i 32 -k RTR
r -t 0.027719062 -s 2 -d 0 -p AODVUU -e 62 -c 2 -a 0 -i 18 -k RTR
r -t 0.027719062 -s 4 -d 0 -p AODVUU -e 62 -c 2 -a 0 -i 18 -k RTR
r -t 0.027855062 -s 2 -d 0 -p AODVUU -e 62 -c 2 -a 0 -i 18 -k RTR
r -t 0.027855062 -s 4 -d 0 -p AODVUU -e 62 -c 2 -a 0 -i 18 -k RTR
+ -t 0.028728944 -s 6 -d 0 -p AODVUU -e 62 -c 2 -a 0 -i 28 -k RTR 
- -t 0.028728944 -s 6 -d 0 -p AODVUU -e 62 -c 2 -a 0 -i 28 -k RTR
h -t 0.028728944 -s 6 -d 0 -p AODVUU -e 62 -c 2 -a 0 -i 28 -k RTR
+ -t 0.028728944 -s 6 -d 0 -p AODVUU -e 62 -c 2 -a 0 -i 28 -k RTR 
- -t 0.028728944 -s 6 -d 0 -p AODVUU -e 62 -c 2 -a 0 -i 28 -k RTR
h -t 0.028728944 -s 6 -d 0 -p AODVUU -e 62 -c 2 -a 0 -i 28 -k RTR
+ -t 0.028728944 -s 6 -d 0 -p AODVUU -e 62 -c 2 -a 0 -i 28 -k RTR 
- -t 0.028728944 -s 6 -d 0 -p AODVUU -e 62 -c 2 -a 0 -i 28 -k RTR
h -t 0.028728944 -s 6 -d 0 -p AODVUU -e 62 -c 2 -a 0 -i 28 -k RTR
r -t 0.028866665 -s 2 -d 0 -p AODVUU -e 62 -c 2 -a 0 -i 32 -k RTR
r -t 0.028866665 -s 4 -d 0 -p AODVUU -e 62 -c 2 -a 0 -i 32 -k RTR
r -t 0.028969062 -s 2 -d 0 -p AODVUU -e 62 -c 2 -a 0 -i 32 -k RTR
r -t 0.028969062 -s 4 -d 0 -p AODVUU -e 62 -c 2 -a 0 -i 32 -k RTR
r -t 0.029385062 -s 2 -d 0 -p AODVUU -e 62 -c 2 -a 0 -i 32 -k RTR
r -t 0.029385062 -s 4 -d 0 -p AODVUU -e 62 -c 2 -a 0 -i 32 -k RTR
+ -t 0.029786201 -s 3 -d 0 -p AODVUU -e 62 -c 2 -a 0 -i 31 -k RTR 
- -t 0.029786201 -s 3 -d 0 -p AODVUU -e 62 -c 2 -a 0 -i 31 -k RTR
h -t 0.029786201 -s 3 -d 0 -p AODVUU -e 62 -c 2 -a 0 -i 31 -k RTR
+ -t 0.029786201 -s 3 -d 0 -p AODVUU -e 62 -c 2 -a 0 -i 31 -k RTR 
- -t 0.029786201 -s 3 -d 0 -p AODVUU -e 62 -c 2 -a 0 -i 31 -k RTR
h -t 0.029786201 -s 3 -d 0 -p AODVUU -e 62 -c 2 -a 0 -i 31 -k RTR
+ -t 0.029786201 -s 3 -d 0 -p AODVUU -e 62 -c 2 -a 0 -i 31 -k RTR 
- -t 0.029786201 -s 3 -d 0 -p AODVUU -e 62 -c 2 -a 0 -i 31 -k RTR
h -t 0.029786201 -s 3 -d 0 -p AODVUU -e 62 -c 2 -a 0 -i 31 -k RTR
r -t 0.029789611 -s 7 -d 0 -p AODVUU -e 62 -c 2 -a 0 -i 28 -k RTR
+ -t 0.029840046 -s 3 -d 0 -p AODVUU -e 62 -c 2 -a 0 -i 30 -k RTR 
- -t 0.029840046 -s 3 -d 0 -p AODVUU -e 62 -c 2 -a 0 -i 30 -k RTR
h -t 0.029840046 -s 3 -d 0 -p AODVUU -e 62 -c 2 -a 0 -i 30 -k RTR
+ -t 0.029840046 -s 3 -d 0 -p AODVUU -e 62 -c 2 -a 0 -i 30 -k RTR 
- -t 0.029840046 -s 3 -d 0 -p AODVUU -e 62 -c 2 -a 0 -i 30 -k RTR
h -t 0.029840046 -s 3 -d 0 -p AODVUU -e 62 -c 2 -a 0 -i 30 -k RTR
+ -t 0.029840046 -s 3 -d 0 -p AODVUU -e 62 -c 2 -a 0 -i 30 -k RTR 
- -t 0.029840046 -s 3 -d 0 -p AODVUU -e 62 -c 2 -a 0 -i 30 -k RTR
h -t 0.029840046 -s 3 -d 0 -p AODVUU -e 62 -c 2 -a 0 -i 30 -k RTR
r -t 0.029889611 -s 7 -d 0 -p AODVUU -e 62 -c 2 -a 0 -i 28 -k RTR
r -t 0.029969611 -s 5 -d 0 -p AODVUU -e 62 -c 2 -a 0 -i 28 -k RTR
r -t 0.029969611 -s 7 -d 0 -p AODVUU -e 62 -c 2 -a 0 -i 28 -k RTR
+ -t 0.030000000 -s 0 -d -1 -p cbr -e 1000 -c 2 -a 0 -i 39 -k AGT 
- -t 0.030000000 -s 0 -d -1 -p cbr -e 1000 -c 2 -a 0 -i 39 -k AGT
h -t 0.030000000 -s 0 -d -1 -p cbr -e 1000 -c 2 -a 0 -i 39 -k AGT
+ -t 0.030005197 -s 3 -d 0 -p AODVUU -e 62 -c 2 -a 0 -i 35 -k RTR 
- -t 0.030005197 -s 3 -d 0 -p AODVUU -e 62 -c 2 -a 0 -i 35 -k RTR
h -t 0.030005197 -s 3 -d 0 -p AODVUU -e 62 -c 2 -a 0 -i 35 -k RTR
+ -t 0.030005197 -s 3 -d 0 -p AODVUU -e 62 -c 2 -a 0 -i 35 -k RTR 
- -t 0.030005197 -s 3 -d 0 -p AODVUU -e 62 -c 2 -a 0 -i 35 -k RTR
h -t 0.030005197 -s 3 -d 0 -p AODVUU -e 62 -c 2 -a 0 -i 35 -k RTR
+ -t 0.030005197 -s 3 -d 0 -p AODVUU -e 62 -c 2 -a 0 -i 35 -k RTR 
- -t 0.030005197 -s 3 -d 0 -p AODVUU -e 62 -c 2 -a 0 -i 35 -k RTR
h -t 0.030005197 -s 3 -d 0 -p AODVUU -e 62 -c 2 -a 0 -i 35 -k RTR
+ -t 0.030314263 -s 3 -d 0 -p AODVUU -e 62 -c 2 -a 0 -i 34 -k RTR 
- -t 0.030314263 -s 3 -d 0 -p AODVUU -e 62 -c 2 -a 0 -i 34 -k RTR
h -t 0.030314263 -s 3 -d 0 -p AODVUU -e 62 -c 2 -a 0 -i 34 -k RTR
+ -t 0.030314263 -s 3 -d 0 -p AODVUU -e 62 -c 2 -a 0 -i 34 -k RTR 
- -t 0.030314263 -s 3 -d 0 -p AODVUU -e 62 -c 2 -a 0 -i 34 -k RTR
h -t 0.030314263 -s 3 -d 0 -p AODVUU -e 62 -c 2 -a 0 -i 34 -k RTR
+ -t 0.030314263 -s 3 -d 0 -p AODVUU -e 62 -c 2 -a 0 -i 34 -k RTR 
- -t 0.030314263 -s 3 -d 0 -p AODVUU -e 62 -c 2 -a 0 -i 34 -k RTR
h -t 0.030314263 -s 3 -d 0 -p AODVUU -e 62 -c 2 -a 0 -i 34 -k RTR
+ -t 0.030463712 -s 3 -d 0 -p AODVUU -e 62 -c 2 -a 0 -i 33 -k RTR 
- -t 0.030463712 -s 3 -d 0 -p AODVUU -e 62 -c 2 -a 0 -i 33 -k RTR
h -t 0.030463712 -s 3 -d 0 -p AODVUU -e 62 -c 2 -a 0 -i 33 -k RTR
+ -t 0.030463712 -s 3 -d 0 -p AODVUU -e 62 -c 2 -a 0 -i 33 -k RTR 
- -t 0.030463712 -s 3 -d 0 -p AODVUU -e 62 -c 2 -a 0 -i 33 -k RTR
h -t 0.030463712 -s 3 -d 0 -p AODVUU -e 62 -c 2 -a 0 -i 33 -k RTR
+ -t 0.030463712 -s 3 -d 0 -p AODVUU -e 62 -c 2 -a 0 -i 33 -k RTR 
- -t 0.030463712 -s 3 -d 0 -p AODVUU -e 62 -c 2 -a 0 -i 33 -k RTR
h -t 0.030463712 -s 3 -d 0 -p AODVUU -e 62 -c 2 -a 0 -i 33 -k RTR
+ -t 0.030577201 -s 5 -d 0 -p AODVUU -e 62 -c 2 -a 0 -i 24 -k RTR 
- -t 0.030577201 -s 5 -d 0 -p AODVUU -e 62 -c 2 -a 0 -i 24 -k RTR
h -t 0.030577201 -s 5 -d 0 -p AODVUU -e 62 -c 2 -a 0 -i 24 -k RTR
+ -t 0.030577201 -s 5 -d 0 -p AODVUU -e 62 -c 2 -a 0 -i 24 -k RTR 
- -t 0.030577201 -s 5 -d 0 -p AODVUU -e 62 -c 2 -a 0 -i 24 -k RTR
h -t 0.030577201 -s 5 -d 0 -p AODVUU -e 62 -c 2 -a 0 -i 24 -k RTR
+ -t 0.030577201 -s 5 -d 0 -p AODVUU -e 62 -c 2 -a 0 -i 24 -k RTR 
- -t 0.030577201 -s 5 -d 0 -p AODVUU -e 62 -c 2 -a 0 -i 24 -k RTR
h -t 0.030577201 -s 5 -d 0 -p AODVUU -e 62 -c 2 -a 0 -i 24 -k RTR
r -t 0.030986868 -s 2 -d 0 -p AODVUU -e 62 -c 2 -a 0 -i 31 -k RTR
r -t 0.030986868 -s 4 -d 0 -p AODVUU -e 62 -c 2 -a 0 -i 31 -k RTR
+ -t 0.031119312 -s 7 -d 0 -p AODVUU -e 62 -c 2 -a 0 -i 38 -k RTR 
- -t 0.031119312 -s 7 -d 0 -p AODVUU -e 62 -c 2 -a 0 -i 38 -k RTR
h -t 0.031119312 -s 7 -d 0 -p AODVUU -e 62 -c 2 -a 0 -i 38 -k RTR
+ -t 0.031119312 -s 7 -d 0 -p AODVUU -e 62 -c 2 -a 0 -i 38 -k RTR 
- -t 0.031119312 -s 7 -d 0 -p AODVUU -e 62 -c 2 -a 0 -i 38 -k RTR
h -t 0.031119312 -s 7 -d 0 -p AODVUU -e 62 -c 2 -a 0 -i 38 -k RTR
+ -t 0.031119312 -s 7 -d 0 -p AODVUU -e 62 -c 2 -a 0 -i 38 -k RTR 
- -t 0.031119312 -s 7 -d 0 -p AODVUU -e 62 -c 2 -a 0 -i 38 -k RTR
h -t 0.031119312 -s 7 -d 0 -p AODVUU -e 62 -c 2 -a 0 -i 38 -k RTR
+ -t 0.031133927 -s 6 -d 0 -p AODVUU -e 62 -c 2 -a 0 -i 27 -k RTR 
- -t 0.031133927 -s 6 -d 0 -p AODVUU -e 62 -c 2 -a 0 -i 27 -k RTR
h -t 0.031133927 -s 6 -d 0 -p AODVUU -e 62 -c 2 -a 0 -i 27 -k RTR
+ -t 0.031133927 -s 6 -d 0 -p AODVUU -e 62 -c 2 -a 0 -i 27 -k RTR 
- -t 0.031133927 -s 6 -d 0 -p AODVUU -e 62 -c 2 -a 0 -i 27 -k RTR
h -t 0.031133927 -s 6 -d 0 -p AODVUU -e 62 -c 2 -a 0 -i 27 -k RTR
+ -t 0.031133927 -s 6 -d 0 -p AODVUU -e 62 -c 2 -a 0 -i 27 -k RTR 
- -t 0.031133927 -s 6 -d 0 -p AODVUU -e 62 -c 2 -a 0 -i 27 -k RTR
h -t 0.031133927 -s 6 -d 0 -p AODVUU -e 62 -c 2 -a 0 -i 27 -k RTR
r -t 0.031346868 -s 2 -d 0 -p AODVUU -e 62 -c 2 -a 0 -i 31 -k RTR
r -t 0.031346868 -s 4 -d 0 -p AODVUU -e 62 -c 2 -a 0 -i 31 -k RTR