n -t * -s 0  -x 100 -y 100 -Z 0 -z 25  -v circle -c black
n -t * -s 1  -x 300 -y 100 -Z 0 -z 25  -v circle -c black
n -t * -s 2  -x 500 -y 100 -Z 0 -z 25  -v circle -c black
n -t * -s 3  -x 700 -y 100 -Z 0 -z 25  -v circle -c black
n -t * -s 4  -x 900 -y 100 -Z 0 -z 25  -v circle -c black
n -t * -s 5  -x 1100 -y 100 -Z 0 -z 25  -v circle -c black
n -t * -s 6  -x 1300 -y 100 -Z 0 -z 25  -v circle -c black
n -t * -s 7  -x 1500 -y 100 -Z 0 -z 25  -v circle -c black
n -t * -s 8  -x 1700 -y 100 -Z 0 -z 25  -v circle -c black
n -t * -s 9  -x 1900 -y 100 -Z 0 -z 25  -v circle -c black
n -t * -s 10  -x 2100 -y 100 -Z 0 -z 25  -v circle -c black
n -t * -s 11  -x 1800 -y 200 -Z 0 -z 25  -v circle -c black
V -t * -v 1.0a5 -a 0
W -t * -x 2100 -y 400
A -t * -n 1 -p 0 -o 0x7fffffff -c 30 -a 1
A -t * -h 1 -m 1073741823 -s 0
+ -t 0.000000000 -s 0 -d -1 -p cbr -e 1000 -c 2 -a 0 -i 0 -k AGT 
- -t 0.000000000 -s 0 -d -1 -p cbr -e 1000 -c 2 -a 0 -i 0 -k AGT
h -t 0.000000000 -s 0 -d -1 -p cbr -e 1000 -c 2 -a 0 -i 0 -k AGT
+ -t 0.000006792 -s 0 -d 0 -p AODVUU -e 62 -c 2 -a 0 -i 1 -k RTR 
- -t 0.000006792 -s 0 -d 0 -p AODVUU -e 62 -c 2 -a 0 -i 1 -k RTR
h -t 0.000006792 -s 0 -d 0 -p AODVUU -e 62 -c 2 -a 0 -i 1 -k RTR
+ -t 0.000006792 -s 0 -d 0 -p AODVUU -e 62 -c 2 -a 0 -i 1 -k RTR 
- -t 0.000006792 -s 0 -d 0 -p AODVUU -e 62 -c 2 -a 0 -i 1 -k RTR
h -t 0.000006792 -s 0 -d 0 -p AODVUU -e 62 -c 2 -a 0 -i 1 -k RTR
+ -t 0.000006792 -s 0 -d 0 -p AODVUU -e 62 -c 2 -a 0 -i 1 -k RTR 
- -t 0.000006792 -s 0 -d 0 -p AODVUU -e 62 -c 2 -a 0 -i 1 -k RTR
h -t 0.000006792 -s 0 -d 0 -p AODVUU -e 62 -c 2 -a 0 -i 1 -k RTR
+ -t 0.000284093 -s 0 -d 0 -p AODVUU -e 62 -c 2 -a 0 -i 3 -k RTR 
- -t 0.000284093 -s 0 -d 0 -p AODVUU -e 62 -c 2 -a 0 -i 3 -k RTR
h -t 0.000284093 -s 0 -d 0 -p AODVUU -e 62 -c 2 -a 0 -i 3 -k RTR
+ -t 0.000284093 -s 0 -d 0 -p AODVUU -e 62 -c 2 -a 0 -i 3 -k RTR 
- -t 0.000284093 -s 0 -d 0 -p AODVUU -e 62 -c 2 -a 0 -i 3 -k RTR
h -t 0.000284093 -s 0 -d 0 -p AODVUU -e 62 -c 2 -a 0 -i 3 -k RTR
+ -t 0.000284093 -s 0 -d 0 -p AODVUU -e 62 -c 2 -a 0 -i 3 -k RTR 
- -t 0.000284093 -s 0 -d 0 -p AODVUU -e 62 -c 2 -a 0 -i 3 -k RTR
h -t 0.000284093 -s 0 -d 0 -p AODVUU -e 62 -c 2 -a 0 -i 3 -k RTR
r -t 0.001067458 -s 1 -d 0 -p AODVUU -e 62 -c 2 -a 0 -i 1 -k RTR
r -t 0.001367458 -s 1 -d 0 -p AODVUU -e 62 -c 2 -a 0 -i 1 -k RTR
r -t 0.001387458 -s 1 -d 0 -p AODVUU -e 62 -c 2 -a 0 -i 1 -k RTR
r -t 0.002237458 -s 1 -d 0 -p AODVUU -e 62 -c 2 -a 0 -i 3 -k RTR
r -t 0.002577458 -s 1 -d 0 -p AODVUU -e 62 -c 2 -a 0 -i 3 -k RTR
r -t 0.002637458 -s 1 -d 0 -p AODVUU -e 62 -c 2 -a 0 -i 3 -k RTR
+ -t 0.010000000 -s 0 -d -1 -p cbr -e 1000 -c 2 -a 0 -i 4 -k AGT 
- -t 0.010000000 -s 0 -d -1 -p cbr -e 1000 -c 2 -a 0 -i 4 -k AGT
h -t 0.010000000 -s 0 -d -1 -p cbr -e 1000 -c 2 -a 0 -i 4 -k AGT
+ -t 0.010855891 -s 0 -d 0 -p AODVUU -e 62 -c 2 -a 0 -i 6 -k RTR 
- -t 0.010855891 -s 0 -d 0 -p AODVUU -e 62 -c 2 -a 0 -i 6 -k RTR
h -t 0.010855891 -s 0 -d 0 -p AODVUU -e 62 -c 2 -a 0 -i 6 -k RTR
+ -t 0.010855891 -s 0 -d 0 -p AODVUU -e 62 -c 2 -a 0 -i 6 -k RTR 
- -t 0.010855891 -s 0 -d 0 -p AODVUU -e 62 -c 2 -a 0 -i 6 -k RTR
h -t 0.010855891 -s 0 -d 0 -p AODVUU -e 62 -c 2 -a 0 -i 6 -k RTR
+ -t 0.010855891 -s 0 -d 0 -p AODVUU -e 62 -c 2 -a 0 -i 6 -k RTR 
- -t 0.010855891 -s 0 -d 0 -p AODVUU -e 62 -c 2 -a 0 -i 6 -k RTR
h -t 0.010855891 -s 0 -d 0 -p AODVUU -e 62 -c 2 -a 0 -i 6 -k RTR
+ -t 0.011117614 -s 0 -d 0 -p AODVUU -e 62 -c 2 -a 0 -i 2 -k RTR 
- -t 0.011117614 -s 0 -d 0 -p AODVUU -e 62 -c 2 -a 0 -i 2 -k RTR
h -t 0.011117614 -s 0 -d 0 -p AODVUU -e 62 -c 2 -a 0 -i 2 -k RTR
+ -t 0.011117614 -s 0 -d 0 -p AODVUU -e 62 -c 2 -a 0 -i 2 -k RTR 
- -t 0.011117614 -s 0 -d 0 -p AODVUU -e 62 -c 2 -a 0 -i 2 -k RTR
h -t 0.011117614 -s 0 -d 0 -p AODVUU -e 62 -c 2 -a 0 -i 2 -k RTR
+ -t 0.011117614 -s 0 -d 0 -p AODVUU -e 62 -c 2 -a 0 -i 2 -k RTR 
- -t 0.011117614 -s 0 -d 0 -p AODVUU -e 62 -c 2 -a 0 -i 2 -k RTR
h -t 0.011117614 -s 0 -d 0 -p AODVUU -e 62 -c 2 -a 0 -i 2 -k RTR
r -t 0.012076558 -s 1 -d 0 -p AODVUU -e 62 -c 2 -a 0 -i 6 -k RTR
r -t 0.012156558 -s 1 -d 0 -p AODVUU -e 62 -c 2 -a 0 -i 6 -k RTR
r -t 0.012276558 -s 1 -d 0 -p AODVUU -e 62 -c 2 -a 0 -i 6 -k RTR
+ -t 0.013282908 -s 0 -d 0 -p AODVUU -e 62 -c 2 -a 0 -i 5 -k RTR 
- -t 0.013282908 -s 0 -d 0 -p AODVUU -e 62 -c 2 -a 0 -i 5 -k RTR
h -t 0.013282908 -s 0 -d 0 -p AODVUU -e 62 -c 2 -a 0 -i 5 -k RTR
+ -t 0.013282908 -s 0 -d 0 -p AODVUU -e 62 -c 2 -a 0 -i 5 -k RTR 
- -t 0.013282908 -s 0 -d 0 -p AODVUU -e 62 -c 2 -a 0 -i 5 -k RTR
h -t 0.013282908 -s 0 -d 0 -p AODVUU -e 62 -c 2 -a 0 -i 5 -k RTR
+ -t 0.013282908 -s 0 -d 0 -p AODVUU -e 62 -c 2 -a 0 -i 5 -k RTR 
- -t 0.013282908 -s 0 -d 0 -p AODVUU -e 62 -c 2 -a 0 -i 5 -k RTR
h -t 0.013282908 -s 0 -d 0 -p AODVUU -e 62 -c 2 -a 0 -i 5 -k RTR
r -t 0.013506558 -s 1 -d 0 -p AODVUU -e 62 -c 2 -a 0 -i 2 -k RTR
r -t 0.013566558 -s 1 -d 0 -p AODVUU -e 62 -c 2 -a 0 -i 2 -k RTR
r -t 0.013606558 -s 1 -d 0 -p AODVUU -e 62 -c 2 -a 0 -i 2 -k RTR
r -t 0.014636558 -s 1 -d 0 -p AODVUU -e 62 -c 2 -a 0 -i 5 -k RTR
r -t 0.014716558 -s 1 -d 0 -p AODVUU -e 62 -c 2 -a 0 -i 5 -k RTR
r -t 0.014796558 -s 1 -d 0 -p AODVUU -e 62 -c 2 -a 0 -i 5 -k RTR
+ -t 0.020000000 -s 0 -d -1 -p cbr -e 1000 -c 2 -a 0 -i 8 -k AGT 
- -t 0.020000000 -s 0 -d -1 -p cbr -e 1000 -c 2 -a 0 -i 8 -k AGT
h -t 0.020000000 -s 0 -d -1 -p cbr -e 1000 -c 2 -a 0 -i 8 -k AGT
+ -t 0.022801353 -s 0 -d 0 -p AODVUU -e 62 -c 2 -a 0 -i 7 -k RTR 
- -t 0.022801353 -s 0 -d 0 -p AODVUU -e 62 -c 2 -a 0 -i 7 -k RTR
h -t 0.022801353 -s 0 -d 0 -p AODVUU -e 62 -c 2 -a 0 -i 7 -k RTR
+ -t 0.022801353 -s 0 -d 0 -p AODVUU -e 62 -c 2 -a 0 -i 7 -k RTR 
- -t 0.022801353 -s 0 -d 0 -p AODVUU -e 62 -c 2 -a 0 -i 7 -k RTR
h -t 0.022801353 -s 0 -d 0 -p AODVUU -e 62 -c 2 -a 0 -i 7 -k RTR
+ -t 0.022801353 -s 0 -d 0 -p AODVUU -e 62 -c 2 -a 0 -i 7 -k RTR 
- -t 0.022801353 -s 0 -d 0 -p AODVUU -e 62 -c 2 -a 0 -i 7 -k RTR
h -t 0.022801353 -s 0 -d 0 -p AODVUU -e 62 -c 2 -a 0 -i 7 -k RTR
r -t 0.023902020 -s 1 -d 0 -p AODVUU -e 62 -c 2 -a 0 -i 7 -k RTR
r -t 0.024162020 -s 1 -d 0 -p AODVUU -e 62 -c 2 -a 0 -i 7 -k RTR
r -t 0.024222020 -s 1 -d 0 -p AODVUU -e 62 -c 2 -a 0 -i 7 -k RTR
+ -t 0.024343189 -s 0 -d 0 -p AODVUU -e 62 -c 2 -a 0 -i 11 -k RTR 
- -t 0.024343189 -s 0 -d 0 -p AODVUU -e 62 -c 2 -a 0 -i 11 -k RTR
h -t 0.024343189 -s 0 -d 0 -p AODVUU -e 62 -c 2 -a 0 -i 11 -k RTR
+ -t 0.024343189 -s 0 -d 0 -p AODVUU -e 62 -c 2 -a 0 -i 11 -k RTR 
- -t 0.024343189 -s 0 -d 0 -p AODVUU -e 62 -c 2 -a 0 -i 11 -k RTR
h -t 0.024343189 -s 0 -d 0 -p AODVUU -e 62 -c 2 -a 0 -i 11 -k RTR
+ -t 0.024343189 -s 0 -d 0 -p AODVUU -e 62 -c 2 -a 0 -i 11 -k RTR 
- -t 0.024343189 -s 0 -d 0 -p AODVUU -e 62 -c 2 -a 0 -i 11 -k RTR
h -t 0.024343189 -s 0 -d 0 -p AODVUU -e 62 -c 2 -a 0 -i 11 -k RTR
r -t 0.025503856 -s 1 -d 0 -p AODVUU -e 62 -c 2 -a 0 -i 11 -k RTR
r -t 0.025603856 -s 1 -d 0 -p AODVUU -e 62 -c 2 -a 0 -i 11 -k RTR
r -t 0.025683856 -s 1 -d 0 -p AODVUU -e 62 -c 2 -a 0 -i 11 -k RTR
+ -t 0.030000000 -s 0 -d -1 -p cbr -e 1000 -c 2 -a 0 -i 12 -k AGT 
- -t 0.030000000 -s 0 -d -1 -p cbr -e 1000 -c 2 -a 0 -i 12 -k AGT
h -t 0.030000000 -s 0 -d -1 -p cbr -e 1000 -c 2 -a 0 -i 12 -k AGT
+ -t 0.036796504 -s 0 -d 0 -p AODVUU -e 62 -c 2 -a 0 -i 10 -k RTR 
- -t 0.036796504 -s 0 -d 0 -p AODVUU -e 62 -c 2 -a 0 -i 10 -k RTR
h -t 0.036796504 -s 0 -d 0 -p AODVUU -e 62 -c 2 -a 0 -i 10 -k RTR
+ -t 0.036796504 -s 0 -d 0 -p AODVUU -e 62 -c 2 -a 0 -i 10 -k RTR 
- -t 0.036796504 -s 0 -d 0 -p AODVUU -e 62 -c 2 -a 0 -i 10 -k RTR
h -t 0.036796504 -s 0 -d 0 -p AODVUU -e 62 -c 2 -a 0 -i 10 -k RTR
+ -t 0.036796504 -s 0 -d 0 -p AODVUU -e 62 -c 2 -a 0 -i 10 -k RTR 
- -t 0.036796504 -s 0 -d 0 -p AODVUU -e 62 -c 2 -a 0 -i 10 -k RTR
h -t 0.036796504 -s 0 -d 0 -p AODVUU -e 62 -c 2 -a 0 -i 10 -k RTR
+ -t 0.037241346 -s 0 -d 0 -p AODVUU -e 62 -c 2 -a 0 -i 9 -k RTR 
- -t 0.037241346 -s 0 -d 0 -p AODVUU -e 62 -c 2 -a 0 -i 9 -k RTR
h -t 0.037241346 -s 0 -d 0 -p AODVUU -e 62 -c 2 -a 0 -i 9 -k RTR
+ -t 0.037241346 -s 0 -d 0 -p AODVUU -e 62 -c 2 -a 0 -i 9 -k RTR 
- -t 0.037241346 -s 0 -d 0 -p AODVUU -e 62 -c 2 -a 0 -i 9 -k RTR
h -t 0.037241346 -s 0 -d 0 -p AODVUU -e 62 -c 2 -a 0 -i 9 -k RTR
+ -t 0.037241346 -s 0 -d 0 -p AODVUU -e 62 -c 2 -a 0 -i 9 -k RTR 
- -t 0.037241346 -s 0 -d 0 -p AODVUU -e 62 -c 2 -a 0 -i 9 -k RTR
h -t 0.037241346 -s 0 -d 0 -p AODVUU -e 62 -c 2 -a 0 -i 9 -k RTR
r -t 0.037917171 -s 1 -d 0 -p AODVUU -e 62 -c 2 -a 0 -i 10 -k RTR
r -t 0.037977171 -s 1 -d 0 -p AODVUU -e 62 -c 2 -a 0 -i 10 -k RTR
r -t 0.038437171 -s 1 -d 0 -p AODVUU -e 62 -c 2 -a 0 -i 10 -k RTR
r -t 0.039267171 -s 1 -d 0 -p AODVUU -e 62 -c 2 -a 0 -i 9 -k RTR
r -t 0.039487171 -s 1 -d 0 -p AODVUU -e 62 -c 2 -a 0 -i 9 -k RTR
r -t 0.039727171 -s 1 -d 0 -p AODVUU -e 62 -c 2 -a 0 -i 9 -k RTR
+ -t 0.040000000 -s 0 -d -1 -p cbr -e 1000 -c 2 -a 0 -i 16 -k AGT 
- -t 0.040000000 -s 0 -d -1 -p cbr -e 1000 -c 2 -a 0 -i 16 -k AGT
h -t 0.040000000 -s 0 -d -1 -p cbr -e 1000 -c 2 -a 0 -i 16 -k AGT
+ -t 0.050000000 -s 0 -d -1 -p cbr -e 1000 -c 2 -a 0 -i 20 -k AGT 
- -t 0.050000000 -s 0 -d -1 -p cbr -e 1000 -c 2 -a 0 -i 20 -k AGT
h -t 0.050000000 -s 0 -d -1 -p cbr -e 1000 -c 2 -a 0 -i 20 -k AGT
+ -t 0.060000000 -s 0 -d -1 -p cbr -e 1000 -c 2 -a 0 -i 24 -k AGT 
- -t 0.060000000 -s 0 -d -1 -p cbr -e 1000 -c 2 -a 0 -i 24 -k AGT
h -t 0.060000000 -s 0 -d -1 -p cbr -e 1000 -c 2 -a 0 -i 24 -k AGT
+ -t 0.070000000 -s 0 -d -1 -p cbr -e 1000 -c 2 -a 0 -i 28 -k AGT 
- -t 0.070000000 -s 0 -d -1 -p cbr -e 1000 -c 2 -a 0 -i 28 -k AGT
h -t 0.070000000 -s 0 -d -1 -p cbr -e 1000 -c 2 -a 0 -i 28 -k AGT
+ -t 0.080000000 -s 0 -d -1 -p cbr -e 1000 -c 2 -a 0 -i 32 -k AGT 
- -t 0.080000000 -s 0 -d -1 -p cbr -e 1000 -c 2 -a 0 -i 32 -k AGT
h -t 0.080000000 -s 0 -d -1 -p cbr -e 1000 -c 2 -a 0 -i 32 -k AGT
+ -t 0.090000000 -s 0 -d -1 -p cbr -e 1000 -c 2 -a 0 -i 36 -k AGT 
- -t 0.090000000 -s 0 -d -1 -p cbr -e 1000 -c 2 -a 0 -i 36 -k AGT
h -t 0.090000000 -s 0 -d -1 -p cbr -e 1000 -c 2 -a 0 -i 36 -k AGT
+ -t 0.100000000 -s 0 -d -1 -p cbr -e 1000 -c 2 -a 0 -i 40 -k AGT 
- -t 0.100000000 -s 0 -d -1 -p cbr -e 1000 -c 2 -a 0 -i 40 -k AGT
h -t 0.100000000 -s 0 -d -1 -p cbr -e 1000 -c 2 -a 0 -i 40 -k AGT
+ -t 0.110000000 -s 0 -d -1 -p cbr -e 1000 -c 2 -a 0 -i 44 -k AGT 
- -t 0.110000000 -s 0 -d -1 -p cbr -e 1000 -c 2 -a 0 -i 44 -k AGT
h -t 0.110000000 -s 0 -d -1 -p cbr -e 1000 -c 2 -a 0 -i 44 -k AGT
+ -t 0.120000000 -s 0 -d -1 -p cbr -e 1000 -c 2 -a 0 -i 48 -k AGT 
- -t 0.120000000 -s 0 -d -1 -p cbr -e 1000 -c 2 -a 0 -i 48 -k AGT
h -t 0.120000000 -s 0 -d -1 -p cbr -e 1000 -c 2 -a 0 -i 48 -k AGT
+ -t 0.130000000 -s 0 -d -1 -p cbr -e 1000 -c 2 -a 0 -i 52 -k AGT 
- -t 0.130000000 -s 0 -d -1 -p cbr -e 1000 -c 2 -a 0 -i 52 -k AGT
h -t 0.130000000 -s 0 -d -1 -p cbr -e 1000 -c 2 -a 0 -i 52 -k AGT
+ -t 0.140000000 -s 0 -d -1 -p cbr -e 1000 -c 2 -a 0 -i 56 -k AGT 
- -t 0.140000000 -s 0 -d -1 -p cbr -e 1000 -c 2 -a 0 -i 56 -k AGT
h -t 0.140000000 -s 0 -d -1 -p cbr -e 1000 -c 2 -a 0 -i 56 -k AGT
+ -t 0.150000000 -s 0 -d -1 -p cbr -e 1000 -c 2 -a 0 -i 60 -k AGT 
- -t 0.150000000 -s 0 -d -1 -p cbr -e 1000 -c 2 -a 0 -i 60 -k AGT
h -t 0.150000000 -s 0 -d -1 -p cbr -e 1000 -c 2 -a 0 -i 60 -k AGT
+ -t 0.160000000 -s 0 -d -1 -p cbr -e 1000 -c 2 -a 0 -i 64 -k AGT 
- -t 0.160000000 -s 0 -d -1 -p cbr -e 1000 -c 2 -a 0 -i 64 -k AGT
h -t 0.160000000 -s 0 -d -1 -p cbr -e 1000 -c 2 -a 0 -i 64 -k AGT
+ -t 0.170000000 -s 0 -d -1 -p cbr -e 1000 -c 2 -a 0 -i 68 -k AGT 
- -t 0.170000000 -s 0 -d -1 -p cbr -e 1000 -c 2 -a 0 -i 68 -k AGT
h -t 0.170000000 -s 0 -d -1 -p cbr -e 1000 -c 2 -a 0 -i 68 -k AGT
+ -t 0.180000000 -s 0 -d -1 -p cbr -e 1000 -c 2 -a 0 -i 72 -k AGT 
- -t 0.180000000 -s 0 -d -1 -p cbr -e 1000 -c 2 -a 0 -i 72 -k AGT
h -t 0.180000000 -s 0 -d -1 -p cbr -e 1000 -c 2 -a 0 -i 72 -k AGT
+ -t 0.190000000 -s 0 -d -1 -p cbr -e 1000 -c 2 -a 0 -i 76 -k AGT 
- -t 0.190000000 -s 0 -d -1 -p cbr -e 1000 -c 2 -a 0 -i 76 -k AGT
h -t 0.190000000 -s 0 -d -1 -p cbr -e 1000 -c 2 -a 0 -i 76 -k AGT
+ -t 0.200000000 -s 0 -d -1 -p cbr -e 1000 -c 2 -a 0 -i 80 -k AGT 
- -t 0.200000000 -s 0 -d -1 -p cbr -e 1000 -c 2 -a 0 -i 80 -k AGT
h -t 0.200000000 -s 0 -d -1 -p cbr -e 1000 -c 2 -a 0 -i 80 -k AGT
+ -t 0.210000000 -s 0 -d -1 -p cbr -e 1000 -c 2 -a 0 -i 84 -k AGT 
- -t 0.210000000 -s 0 -d -1 -p cbr -e 1000 -c 2 -a 0 -i 84 -k AGT
h -t 0.210000000 -s 0 -d -1 -p cbr -e 1000 -c 2 -a 0 -i 84 -k AGT
+ -t 0.220000000 -s 0 -d -1 -p cbr -e 1000 -c 2 -a 0 -i 88 -k AGT 
- -t 0.220000000 -s 0 -d -1 -p cbr -e 1000 -c 2 -a 0 -i 88 -k AGT
h -t 0.220000000 -s 0 -d -1 -p cbr -e 1000 -c 2 -a 0 -i 88 -k AGT
+ -t 0.230000000 -s 0 -d -1 -p cbr -e 1000 -c 2 -a 0 -i 92 -k AGT 
- -t 0.230000000 -s 0 -d -1 -p cbr -e 1000 -c 2 -a 0 -i 92 -k AGT
h -t 0.230000000 -s 0 -d -1 -p cbr -e 1000 -c 2 -a 0 -i 92 -k AGT
+ -t 0.240000000 -s 0 -d -1 -p cbr -e 1000 -c 2 -a 0 -i 99 -k AGT 
- -t 0.240000000 -s 0 -d -1 -p cbr -e 1000 -c 2 -a 0 -i 99 -k AGT
h -t 0.240000000 -s 0 -d -1 -p cbr -e 1000 -c 2 -a 0 -i 99 -k AGT
+ -t 0.250000000 -s 0 -d -1 -p cbr -e 1000 -c 2 -a 0 -i 106 -k AGT 
- -t 0.250000000 -s 0 -d -1 -p cbr -e 1000 -c 2 -a 0 -i 106 -k AGT
h -t 0.250000000 -s 0 -d -1 -p cbr -e 1000 -c 2 -a 0 -i 106 -k AGT
+ -t 0.260000000 -s 0 -d -1 -p cbr -e 1000 -c 2 -a 0 -i 113 -k AGT 
- -t 0.260000000 -s 0 -d -1 -p cbr -e 1000 -c 2 -a 0 -i 113 -k AGT
h -t 0.260000000 -s 0 -d -1 -p cbr -e 1000 -c 2 -a 0 -i 113 -k AGT
+ -t 0.270000000 -s 0 -d -1 -p cbr -e 1000 -c 2 -a 0 -i 120 -k AGT 
- -t 0.270000000 -s 0 -d -1 -p cbr -e 1000 -c 2 -a 0 -i 120 -k AGT
h -t 0.270000000 -s 0 -d -1 -p cbr -e 1000 -c 2 -a 0 -i 120 -k AGT
+ -t 0.280000000 -s 0 -d -1 -p cbr -e 1000 -c 2 -a 0 -i 127 -k AGT 
- -t 0.280000000 -s 0 -d -1 -p cbr -e 1000 -c 2 -a 0 -i 127 -k AGT
h -t 0.280000000 -s 0 -d -1 -p cbr -e 1000 -c 2 -a 0 -i 127 -k AGT
+ -t 0.290000000 -s 0 -d -1 -p cbr -e 1000 -c 2 -a 0 -i 134 -k AGT 
- -t 0.290000000 -s 0 -d -1 -p cbr -e 1000 -c 2 -a 0 -i 134 -k AGT
h -t 0.290000000 -s 0 -d -1 -p cbr -e 1000 -c 2 -a 0 -i 134 -k AGT
+ -t 0.300000000 -s 0 -d -1 -p cbr -e 1000 -c 2 -a 0 -i 141 -k AGT 
- -t 0.300000000 -s 0 -d -1 -p cbr -e 1000 -c 2 -a 0 -i 141 -k AGT
h -t 0.300000000 -s 0 -d -1 -p cbr -e 1000 -c 2 -a 0 -i 141 -k AGT
+ -t 0.310000000 -s 0 -d -1 -p cbr -e 1000 -c 2 -a 0 -i 148 -k AGT 
- -t 0.310000000 -s 0 -d -1 -p cbr -e 1000 -c 2 -a 0 -i 148 -k AGT
h -t 0.310000000 -s 0 -d -1 -p cbr -e 1000 -c 2 -a 0 -i 148 -k AGT
+ -t 0.320000000 -s 0 -d -1 -p cbr -e 1000 -c 2 -a 0 -i 155 -k AGT 
- -t 0.320000000 -s 0 -d -1 -p cbr -e 1000 -c 2 -a 0 -i 155 -k AGT
h -t 0.320000000 -s 0 -d -1 -p cbr -e 1000 -c 2 -a 0 -i 155 -k AGT
+ -t 0.330000000 -s 0 -d -1 -p cbr -e 1000 -c 2 -a 0 -i 162 -k AGT 
- -t 0.330000000 -s 0 -d -1 -p cbr -e 1000 -c 2 -a 0 -i 162 -k AGT
h -t 0.330000000 -s 0 -d -1 -p cbr -e 1000 -c 2 -a 0 -i 162 -k AGT
+ -t 0.340000000 -s 0 -d -1 -p cbr -e 1000 -c 2 -a 0 -i 169 -k AGT 
- -t 0.340000000 -s 0 -d -1 -p cbr -e 1000 -c 2 -a 0 -i 169 -k AGT
h -t 0.340000000 -s 0 -d -1 -p cbr -e 1000 -c 2 -a 0 -i 169 -k AGT
+ -t 0.350000000 -s 0 -d -1 -p cbr -e 1000 -c 2 -a 0 -i 176 -k AGT 
- -t 0.350000000 -s 0 -d -1 -p cbr -e 1000 -c 2 -a 0 -i 176 -k AGT
h -t 0.350000000 -s 0 -d -1 -p cbr -e 1000 -c 2 -a 0 -i 176 -k AGT
+ -t 0.360000000 -s 0 -d -1 -p cbr -e 1000 -c 2 -a 0 -i 183 -k AGT 
- -t 0.360000000 -s 0 -d -1 -p cbr -e 1000 -c 2 -a 0 -i 183 -k AGT
h -t 0.360000000 -s 0 -d -1 -p cbr -e 1000 -c 2 -a 0 -i 183 -k AGT
+ -t 0.370000000 -s 0 -d -1 -p cbr -e 1000 -c 2 -a 0 -i 190 -k AGT 
- -t 0.370000000 -s 0 -d -1 -p cbr -e 1000 -c 2 -a 0 -i 190 -k AGT
h -t 0.370000000 -s 0 -d -1 -p cbr -e 1000 -c 2 -a 0 -i 190 -k AGT
+ -t 0.380000000 -s 0 -d -1 -p cbr -e 1000 -c 2 -a 0 -i 197 -k AGT 
- -t 0.380000000 -s 0 -d -1 -p cbr -e 1000 -c 2 -a 0 -i 197 -k AGT
h -t 0.380000000 -s 0 -d -1 -p cbr -e 1000 -c 2 -a 0 -i 197 -k AGT
+ -t 0.390000000 -s 0 -d -1 -p cbr -e 1000 -c 2 -a 0 -i 204 -k AGT 
- -t 0.390000000 -s 0 -d -1 -p cbr -e 1000 -c 2 -a 0 -i 204 -k AGT
h -t 0.390000000 -s 0 -d -1 -p cbr -e 1000 -c 2 -a 0 -i 204 -k AGT
+ -t 0.400000000 -s 0 -d -1 -p cbr -e 1000 -c 2 -a 0 -i 211 -k AGT 
- -t 0.400000000 -s 0 -d -1 -p cbr -e 1000 -c 2 -a 0 -i 211 -k AGT
h -t 0.400000000 -s 0 -d -1 -p cbr -e 1000 -c 2 -a 0 -i 211 -k AGT
+ -t 0.410000000 -s 0 -d -1 -p cbr -e 1000 -c 2 -a 0 -i 218 -k AGT 
- -t 0.410000000 -s 0 -d -1 -p cbr -e 1000 -c 2 -a 0 -i 218 -k AGT
h -t 0.410000000 -s 0 -d -1 -p cbr -e 1000 -c 2 -a 0 -i 218 -k AGT
+ -t 0.420000000 -s 0 -d -1 -p cbr -e 1000 -c 2 -a 0 -i 225 -k AGT 
- -t 0.420000000 -s 0 -d -1 -p cbr -e 1000 -c 2 -a 0 -i 225 -k AGT
h -t 0.420000000 -s 0 -d -1 -p cbr -e 1000 -c 2 -a 0 -i 225 -k AGT
+ -t 0.430000000 -s 0 -d -1 -p cbr -e 1000 -c 2 -a 0 -i 232 -k AGT 
- -t 0.430000000 -s 0 -d -1 -p cbr -e 1000 -c 2 -a 0 -i 232 -k AGT
h -t 0.430000000 -s 0 -d -1 -p cbr -e 1000 -c 2 -a 0 -i 232 -k AGT
+ -t 0.440000000 -s 0 -d -1 -p cbr -e 1000 -c 2 -a 0 -i 239 -k AGT 
- -t 0.440000000 -s 0 -d -1 -p cbr -e 1000 -c 2 -a 0 -i 239 -k AGT
h -t 0.440000000 -s 0 -d -1 -p cbr -e 1000 -c 2 -a 0 -i 239 -k AGT
+ -t 0.450000000 -s 0 -d -1 -p cbr -e 1000 -c 2 -a 0 -i 246 -k AGT 
- -t 0.450000000 -s 0 -d -1 -p cbr -e 1000 -c 2 -a 0 -i 246 -k AGT
h -t 0.450000000 -s 0 -d -1 -p cbr -e 1000 -c 2 -a 0 -i 246 -k AGT
+ -t 0.460000000 -s 0 -d -1 -p cbr -e 1000 -c 2 -a 0 -i 253 -k AGT 
- -t 0.460000000 -s 0 -d -1 -p cbr -e 1000 -c 2 -a 0 -i 253 -k AGT
h -t 0.460000000 -s 0 -d -1 -p cbr -e 1000 -c 2 -a 0 -i 253 -k AGT
+ -t 0.470000000 -s 0 -d -1 -p cbr -e 1000 -c 2 -a 0 -i 260 -k AGT 
- -t 0.470000000 -s 0 -d -1 -p cbr -e 1000 -c 2 -a 0 -i 260 -k AGT
h -t 0.470000000 -s 0 -d -1 -p cbr -e 1000 -c 2 -a 0 -i 260 -k AGT
+ -t 0.480000000 -s 0 -d -1 -p cbr -e 1000 -c 2 -a 0 -i 267 -k AGT 
- -t 0.480000000 -s 0 -d -1 -p cbr -e 1000 -c 2 -a 0 -i 267 -k AGT
h -t 0.480000000 -s 0 -d -1 -p cbr -e 1000 -c 2 -a 0 -i 267 -k AGT
+ -t 0.490000000 -s 0 -d -1 -p cbr -e 1000 -c 2 -a 0 -i 274 -k AGT 
- -t 0.490000000 -s 0 -d -1 -p cbr -e 1000 -c 2 -a 0 -i 274 -k AGT
h -t 0.490000000 -s 0 -d -1 -p cbr -e 1000 -c 2 -a 0 -i 274 -k AGT
+ -t 0.500000000 -s 0 -d -1 -p cbr -e 1000 -c 2 -a 0 -i 281 -k AGT 
- -t 0.500000000 -s 0 -d -1 -p cbr -e 1000 -c 2 -a 0 -i 281 -k AGT
h -t 0.500000000 -s 0 -d -1 -p cbr -e 1000 -c 2 -a 0 -i 281 -k AGT
+ -t 0.510000000 -s 0 -d -1 -p cbr -e 1000 -c 2 -a 0 -i 288 -k AGT 
- -t 0.510000000 -s 0 -d -1 -p cbr -e 1000 -c 2 -a 0 -i 288 -k AGT
h -t 0.510000000 -s 0 -d -1 -p cbr -e 1000 -c 2 -a 0 -i 288 -k AGT
+ -t 0.520000000 -s 0 -d -1 -p cbr -e 1000 -c 2 -a 0 -i 295 -k AGT 
- -t 0.520000000 -s 0 -d -1 -p cbr -e 1000 -c 2 -a 0 -i 295 -k AGT
h -t 0.520000000 -s 0 -d -1 -p cbr -e 1000 -c 2 -a 0 -i 295 -k AGT
+ -t 0.530000000 -s 0 -d -1 -p cbr -e 1000 -c 2 -a 0 -i 302 -k AGT 
- -t 0.530000000 -s 0 -d -1 -p cbr -e 1000 -c 2 -a 0 -i 302 -k AGT
h -t 0.530000000 -s 0 -d -1 -p cbr -e 1000 -c 2 -a 0 -i 302 -k AGT
+ -t 0.540000000 -s 0 -d -1 -p cbr -e 1000 -c 2 -a 0 -i 309 -k AGT 
- -t 0.540000000 -s 0 -d -1 -p cbr -e 1000 -c 2 -a 0 -i 309 -k AGT
h -t 0.540000000 -s 0 -d -1 -p cbr -e 1000 -c 2 -a 0 -i 309 -k AGT
+ -t 0.550000000 -s 0 -d -1 -p cbr -e 1000 -c 2 -a 0 -i 316 -k AGT 
- -t 0.550000000 -s 0 -d -1 -p cbr -e 1000 -c 2 -a 0 -i 316 -k AGT
h -t 0.550000000 -s 0 -d -1 -p cbr -e 1000 -c 2 -a 0 -i 316 -k AGT
+ -t 0.560000000 -s 0 -d -1 -p cbr -e 1000 -c 2 -a 0 -i 323 -k AGT 
- -t 0.560000000 -s 0 -d -1 -p cbr -e 1000 -c 2 -a 0 -i 323 -k AGT
h -t 0.560000000 -s 0 -d -1 -p cbr -e 1000 -c 2 -a 0 -i 323 -k AGT
+ -t 0.570000000 -s 0 -d -1 -p cbr -e 1000 -c 2 -a 0 -i 330 -k AGT 
- -t 0.570000000 -s 0 -d -1 -p cbr -e 1000 -c 2 -a 0 -i 330 -k AGT
h -t 0.570000000 -s 0 -d -1 -p cbr -e 1000 -c 2 -a 0 -i 330 -k AGT
+ -t 0.580000000 -s 0 -d -1 -p cbr -e 1000 -c 2 -a 0 -i 337 -k AGT 
- -t 0.580000000 -s 0 -d -1 -p cbr -e 1000 -c 2 -a 0 -i 337 -k AGT
h -t 0.580000000 -s 0 -d -1 -p cbr -e 1000 -c 2 -a 0 -i 337 -k AGT
+ -t 0.590000000 -s 0 -d -1 -p cbr -e 1000 -c 2 -a 0 -i 344 -k AGT 
- -t 0.590000000 -s 0 -d -1 -p cbr -e 1000 -c 2 -a 0 -i 344 -k AGT
h -t 0.590000000 -s 0 -d -1 -p cbr -e 1000 -c 2 -a 0 -i 344 -k AGT
+ -t 0.600000000 -s 0 -d -1 -p cbr -e 1000 -c 2 -a 0 -i 351 -k AGT 
- -t 0.600000000 -s 0 -d -1 -p cbr -e 1000 -c 2 -a 0 -i 351 -k AGT
h -t 0.600000000 -s 0 -d -1 -p cbr -e 1000 -c 2 -a 0 -i 351 -k AGT
+ -t 0.610000000 -s 0 -d -1 -p cbr -e 1000 -c 2 -a 0 -i 358 -k AGT 
- -t 0.610000000 -s 0 -d -1 -p cbr -e 1000 -c 2 -a 0 -i 358 -k AGT
h -t 0.610000000 -s 0 -d -1 -p cbr -e 1000 -c 2 -a 0 -i 358 -k AGT
+ -t 0.620000000 -s 0 -d -1 -p cbr -e 1000 -c 2 -a 0 -i 365 -k AGT 
- -t 0.620000000 -s 0 -d -1 -p cbr -e 1000 -c 2 -a 0 -i 365 -k AGT
h -t 0.620000000 -s 0 -d -1 -p cbr -e 1000 -c 2 -a 0 -i 365 -k AGT
+ -t 0.630000000 -s 0 -d -1 -p cbr -e 1000 -c 2 -a 0 -i 372 -k AGT 
- -t 0.630000000 -s 0 -d -1 -p cbr -e 1000 -c 2 -a 0 -i 372 -k AGT
h -t 0.630000000 -s 0 -d -1 -p cbr -e 1000 -c 2 -a 0 -i 372 -k AGT
+ -t 0.640000000 -s 0 -d -1 -p cbr -e 1000 -c 2 -a 0 -i 382 -k AGT 
- -t 0.640000000 -s 0 -d -1 -p cbr -e 1000 -c 2 -a 0 -i 382 -k AGT
h -t 0.640000000 -s 0 -d -1 -p cbr -e 1000 -c 2 -a 0 -i 382 -k AGT
+ -t 0.650000000 -s 0 -d -1 -p cbr -e 1000 -c 2 -a 0 -i 392 -k AGT 
- -t 0.650000000 -s 0 -d -1 -p cbr -e 1000 -c 2 -a 0 -i 392 -k AGT
h -t 0.650000000 -s 0 -d -1 -p cbr -e 1000 -c 2 -a 0 -i 392 -k AGT
+ -t 0.660000000 -s 0 -d -1 -p cbr -e 1000 -c 2 -a 0 -i 402 -k AGT 
- -t 0.660000000 -s 0 -d -1 -p cbr -e 1000 -c 2 -a 0 -i 402 -k AGT
h -t 0.660000000 -s 0 -d -1 -p cbr -e 1000 -c 2 -a 0 -i 402 -k AGT
+ -t 0.670000000 -s 0 -d -1 -p cbr -e 1000 -c 2 -a 0 -i 412 -k AGT 
- -t 0.670000000 -s 0 -d -1 -p cbr -e 1000 -c 2 -a 0 -i 412 -k AGT
h -t 0.670000000 -s 0 -d -1 -p cbr -e 1000 -c 2 -a 0 -i 412 -k AGT
+ -t 0.680000000 -s 0 -d -1 -p cbr -e 1000 -c 2 -a 0 -i 422 -k AGT 
- -t 0.680000000 -s 0 -d -1 -p cbr -e 1000 -c 2 -a 0 -i 422 -k AGT
h -t 0.680000000 -s 0 -d -1 -p cbr -e 1000 -c 2 -a 0 -i 422 -k AGT
+ -t 0.690000000 -s 0 -d -1 -p cbr -e 1000 -c 2 -a 0 -i 432 -k AGT 
- -t 0.690000000 -s 0 -d -1 -p cbr -e 1000 -c 2 -a 0 -i 432 -k AGT
h -t 0.690000000 -s 0 -d -1 -p cbr -e 1000 -c 2 -a 0 -i 432 -k AGT
+ -t 0.700000000 -s 0 -d -1 -p cbr -e 1000 -c 2 -a 0 -i 442 -k AGT 
- -t 0.700000000 -s 0 -d -1 -p cbr -e 1000 -c 2 -a 0 -i 442 -k AGT
h -t 0.700000000 -s 0 -d -1 -p cbr -e 1000 -c 2 -a 0 -i 442 -k AGT
+ -t 0.710000000 -s 0 -d -1 -p cbr -e 1000 -c 2 -a 0 -i 452 -k AGT 
- -t 0.710000000 -s 0 -d -1 -p cbr -e 1000 -c 2 -a 0 -i 452 -k AGT
h -t 0.710000000 -s 0 -d -1 -p cbr -e 1000 -c 2 -a 0 -i 452 -k AGT
+ -t 0.720000000 -s 0 -d -1 -p cbr -e 1000 -c 2 -a 0 -i 462 -k AGT 
- -t 0.720000000 -s 0 -d -1 -p cbr -e 1000 -c 2 -a 0 -i 462 -k AGT
h -t 0.720000000 -s 0 -d -1 -p cbr -e 1000 -c 2 -a 0 -i 462 -k AGT
+ -t 0.730000000 -s 0 -d -1 -p cbr -e 1000 -c 2 -a 0 -i 472 -k AGT 
- -t 0.730000000 -s 0 -d -1 -p cbr -e 1000 -c 2 -a 0 -i 472 -k AGT
h -t 0.730000000 -s 0 -d -1 -p cbr -e 1000 -c 2 -a 0 -i 472 -k AGT
+ -t 0.740000000 -s 0 -d -1 -p cbr -e 1000 -c 2 -a 0 -i 482 -k AGT 
- -t 0.740000000 -s 0 -d -1 -p cbr -e 1000 -c 2 -a 0 -i 482 -k AGT
h -t 0.740000000 -s 0 -d -1 -p cbr -e 1000 -c 2 -a 0 -i 482 -k AGT
+ -t 0.750000000 -s 0 -d -1 -p cbr -e 1000 -c 2 -a 0 -i 492 -k AGT 
- -t 0.750000000 -s 0 -d -1 -p cbr -e 1000 -c 2 -a 0 -i 492 -k AGT
h -t 0.750000000 -s 0 -d -1 -p cbr -e 1000 -c 2 -a 0 -i 492 -k AGT
+ -t 0.760000000 -s 0 -d -1 -p cbr -e 1000 -c 2 -a 0 -i 502 -k AGT 
- -t 0.760000000 -s 0 -d -1 -p cbr -e 1000 -c 2 -a 0 -i 502 -k AGT
h -t 0.760000000 -s 0 -d -1 -p cbr -e 1000 -c 2 -a 0 -i 502 -k AGT
+ -t 0.770000000 -s 0 -d -1 -p cbr -e 1000 -c 2 -a 0 -i 512 -k AGT 
- -t 0.770000000 -s 0 -d -1 -p cbr -e 1000 -c 2 -a 0 -i 512 -k AGT
h -t 0.770000000 -s 0 -d -1 -p cbr -e 1000 -c 2 -a 0 -i 512 -k AGT
+ -t 0.780000000 -s 0 -d -1 -p cbr -e 1000 -c 2 -a 0 -i 522 -k AGT 
- -t 0.780000000 -s 0 -d -1 -p cbr -e 1000 -c 2 -a 0 -i 522 -k AGT
h -t 0.780000000 -s 0 -d -1 -p cbr -e 1000 -c 2 -a 0 -i 522 -k AGT
+ -t 0.790000000 -s 0 -d -1 -p cbr -e 1000 -c 2 -a 0 -i 532 -k AGT 
- -t 0.790000000 -s 0 -d -1 -p cbr -e 1000 -c 2 -a 0 -i 532 -k AGT
h -t 0.790000000 -s 0 -d -1 -p cbr -e 1000 -c 2 -a 0 -i 532 -k AGT
+ -t 0.800000000 -s 0 -d -1 -p cbr -e 1000 -c 2 -a 0 -i 542 -k AGT 
- -t 0.800000000 -s 0 -d -1 -p cbr -e 1000 -c 2 -a 0 -i 542 -k AGT
h -t 0.800000000 -s 0 -d -1 -p cbr -e 1000 -c 2 -a 0 -i 542 -k AGT
+ -t 0.810000000 -s 0 -d -1 -p cbr -e 1000 -c 2 -a 0 -i 552 -k AGT 
- -t 0.810000000 -s 0 -d -1 -p cbr -e 1000 -c 2 -a 0 -i 552 -k AGT
h -t 0.810000000 -s 0 -d -1 -p cbr -e 1000 -c 2 -a 0 -i 552 -k AGT
+ -t 0.820000000 -s 0 -d -1 -p cbr -e 1000 -c 2 -a 0 -i 562 -k AGT 
- -t 0.820000000 -s 0 -d -1 -p cbr -e 1000 -c 2 -a 0 -i 562 -k AGT
h -t 0.820000000 -s 0 -d -1 -p cbr -e 1000 -c 2 -a 0 -i 562 -k AGT
+ -t 0.830000000 -s 0 -d -1 -p cbr -e 1000 -c 2 -a 0 -i 572 -k AGT 
- -t 0.830000000 -s 0 -d -1 -p cbr -e 1000 -c 2 -a 0 -i 572 -k AGT
h -t 0.830000000 -s 0 -d -1 -p cbr -e 1000 -c 2 -a 0 -i 572 -k AGT
+ -t 0.840000000 -s 0 -d -1 -p cbr -e 1000 -c 2 -a 0 -i 582 -k AGT 
- -t 0.840000000 -s 0 -d -1 -p cbr -e 1000 -c 2 -a 0 -i 582 -k AGT
h -t 0.840000000 -s 0 -d -1 -p cbr -e 1000 -c 2 -a 0 -i 582 -k AGT
+ -t 0.850000000 -s 0 -d -1 -p cbr -e 1000 -c 2 -a 0 -i 592 -k AGT 
- -t 0.850000000 -s 0 -d -1 -p cbr -e 1000 -c 2 -a 0 -i 592 -k AGT
h -t 0.850000000 -s 0 -d -1 -p cbr -e 1000 -c 2 -a 0 -i 592 -k AGT
+ -t 0.860000000 -s 0 -d -1 -p cbr -e 1000 -c 2 -a 0 -i 602 -k AGT 
- -t 0.860000000 -s 0 -d -1 -p cbr -e 1000 -c 2 -a 0 -i 602 -k AGT
h -t 0.860000000 -s 0 -d -1 -p cbr -e 1000 -c 2 -a 0 -i 602 -k AGT
+ -t 0.870000000 -s 0 -d -1 -p cbr -e 1000 -c 2 -a 0 -i 612 -k AGT 
- -t 0.870000000 -s 0 -d -1 -p cbr -e 1000 -c 2 -a 0 -i 612 -k AGT
h -t 0.870000000 -s 0 -d -1 -p cbr -e 1000 -c 2 -a 0 -i 612 -k AGT
+ -t 0.880000000 -s 0 -d -1 -p cbr -e 1000 -c 2 -a 0 -i 622 -k AGT 
- -t 0.880000000 -s 0 -d -1 -p cbr -e 1000 -c 2 -a 0 -i 622 -k AGT
h -t 0.880000000 -s 0 -d -1 -p cbr -e 1000 -c 2 -a 0 -i 622 -k AGT
+ -t 0.890000000 -s 0 -d -1 -p cbr -e 1000 -c 2 -a 0 -i 632 -k AGT 
- -t 0.890000000 -s 0 -d -1 -p cbr -e 1000 -c 2 -a 0 -i 632 -k AGT
h -t 0.890000000 -s 0 -d -1 -p cbr -e 1000 -c 2 -a 0 -i 632 -k AGT
+ -t 0.900000000 -s 0 -d -1 -p cbr -e 1000 -c 2 -a 0 -i 642 -k AGT 
- -t 0.900000000 -s 0 -d -1 -p cbr -e 1000 -c 2 -a 0 -i 642 -k AGT
h -t 0.900000000 -s 0 -d -1 -p cbr -e 1000 -c 2 -a 0 -i 642 -k AGT
+ -t 0.910000000 -s 0 -d -1 -p cbr -e 1000 -c 2 -a 0 -i 652 -k AGT 
- -t 0.910000000 -s 0 -d -1 -p cbr -e 1000 -c 2 -a 0 -i 652 -k AGT
h -t 0.910000000 -s 0 -d -1 -p cbr -e 1000 -c 2 -a 0 -i 652 -k AGT
+ -t 0.920000000 -s 0 -d -1 -p cbr -e 1000 -c 2 -a 0 -i 662 -k AGT 
- -t 0.920000000 -s 0 -d -1 -p cbr -e 1000 -c 2 -a 0 -i 662 -k AGT
h -t 0.920000000 -s 0 -d -1 -p cbr -e 1000 -c 2 -a 0 -i 662 -k AGT
+ -t 0.930000000 -s 0 -d -1 -p cbr -e 1000 -c 2 -a 0 -i 672 -k AGT 
- -t 0.930000000 -s 0 -d -1 -p cbr -e 1000 -c 2 -a 0 -i 672 -k AGT
h -t 0.930000000 -s 0 -d -1 -p cbr -e 1000 -c 2 -a 0 -i 672 -k AGT
+ -t 0.940000000 -s 0 -d -1 -p cbr -e 1000 -c 2 -a 0 -i 682 -k AGT 
- -t 0.940000000 -s 0 -d -1 -p cbr -e 1000 -c 2 -a 0 -i 682 -k AGT
h -t 0.940000000 -s 0 -d -1 -p cbr -e 1000 -c 2 -a 0 -i 682 -k AGT
+ -t 0.950000000 -s 0 -d -1 -p cbr -e 1000 -c 2 -a 0 -i 692 -k AGT 
- -t 0.950000000 -s 0 -d -1 -p cbr -e 1000 -c 2 -a 0 -i 692 -k AGT
h -t 0.950000000 -s 0 -d -1 -p cbr -e 1000 -c 2 -a 0 -i 692 -k AGT
+ -t 0.960000000 -s 0 -d -1 -p cbr -e 1000 -c 2 -a 0 -i 702 -k AGT 
- -t 0.960000000 -s 0 -d -1 -p cbr -e 1000 -c 2 -a 0 -i 702 -k AGT
h -t 0.960000000 -s 0 -d -1 -p cbr -e 1000 -c 2 -a 0 -i 702 -k AGT
+ -t 0.970000000 -s 0 -d -1 -p cbr -e 1000 -c 2 -a 0 -i 712 -k AGT 
- -t 0.970000000 -s 0 -d -1 -p cbr -e 1000 -c 2 -a 0 -i 712 -k AGT
h -t 0.970000000 -s 0 -d -1 -p cbr -e 1000 -c 2 -a 0 -i 712 -k AGT
+ -t 0.980000000 -s 0 -d -1 -p cbr -e 1000 -c 2 -a 0 -i 722 -k AGT 
- -t 0.980000000 -s 0 -d -1 -p cbr -e 1000 -c 2 -a 0 -i 722 -k AGT
h -t 0.980000000 -s 0 -d -1 -p cbr -e 1000 -c 2 -a 0 -i 722 -k AGT
+ -t 0.990000000 -s 0 -d -1 -p cbr -e 1000 -c 2 -a 0 -i 732 -k AGT 
- -t 0.990000000 -s 0 -d -1 -p cbr -e 1000 -c 2 -a 0 -i 732 -k AGT
h -t 0.990000000 -s 0 -d -1 -p cbr -e 1000 -c 2 -a 0 -i 732 -k AGT
+ -t 1.000000000 -s 0 -d -1 -p cbr -e 1000 -c 2 -a 0 -i 752 -k AGT 
- -t 1.000000000 -s 0 -d -1 -p cbr -e 1000 -c 2 -a 0 -i 752 -k AGT
h -t 1.000000000 -s 0 -d -1 -p cbr -e 1000 -c 2 -a 0 -i 752 -k AGT
+ -t 1.000551149 -s 7 -d 0 -p AODVUU -e 48 -c 2 -a 0 -i 741 -k RTR 
- -t 1.000551149 -s 7 -d 0 -p AODVUU -e 48 -c 2 -a 0 -i 741 -k RTR
h -t 1.000551149 -s 7 -d 0 -p AODVUU -e 48 -c 2 -a 0 -i 741 -k RTR
+ -t 1.000551149 -s 7 -d 0 -p AODVUU -e 48 -c 2 -a 0 -i 741 -k RTR 
- -t 1.000551149 -s 7 -d 0 -p AODVUU -e 48 -c 2 -a 0 -i 741 -k RTR
h -t 1.000551149 -s 7 -d 0 -p AODVUU -e 48 -c 2 -a 0 -i 741 -k RTR
+ -t 1.000551149 -s 7 -d 0 -p AODVUU -e 48 -c 2 -a 0 -i 741 -k RTR 
- -t 1.000551149 -s 7 -d 0 -p AODVUU -e 48 -c 2 -a 0 -i 741 -k RTR
h -t 1.000551149 -s 7 -d 0 -p AODVUU -e 48 -c 2 -a 0 -i 741 -k RTR
r -t 1.001539816 -s 6 -d 0 -p AODVUU -e 48 -c 2 -a 0 -i 741 -k RTR
r -t 1.001539816 -s 8 -d 0 -p AODVUU -e 48 -c 2 -a 0 -i 741 -k RTR
r -t 1.001619816 -s 6 -d 0 -p AODVUU -e 48 -c 2 -a 0 -i 741 -k RTR
r -t 1.001619816 -s 8 -d 0 -p AODVUU -e 48 -c 2 -a 0 -i 741 -k RTR
r -t 1.001799816 -s 6 -d 0 -p AODVUU -e 48 -c 2 -a 0 -i 741 -k RTR
r -t 1.001799816 -s 8 -d 0 -p AODVUU -e 48 -c 2 -a 0 -i 741 -k RTR
+ -t 1.003574728 -s 1 -d 0 -p AODVUU -e 48 -c 2 -a 0 -i 756 -k RTR 
- -t 1.003574728 -s 1 -d 0 -p AODVUU -e 48 -c 2 -a 0 -i 756 -k RTR
h -t 1.003574728 -s 1 -d 0 -p AODVUU -e 48 -c 2 -a 0 -i 756 -k RTR
+ -t 1.003574728 -s 1 -d 0 -p AODVUU -e 48 -c 2 -a 0 -i 756 -k RTR 
- -t 1.003574728 -s 1 -d 0 -p AODVUU -e 48 -c 2 -a 0 -i 756 -k RTR
h -t 1.003574728 -s 1 -d 0 -p AODVUU -e 48 -c 2 -a 0 -i 756 -k RTR
+ -t 1.003574728 -s 1 -d 0 -p AODVUU -e 48 -c 2 -a 0 -i 756 -k RTR 
- -t 1.003574728 -s 1 -d 0 -p AODVUU -e 48 -c 2 -a 0 -i 756 -k RTR
h -t 1.003574728 -s 1 -d 0 -p AODVUU -e 48 -c 2 -a 0 -i 756 -k RTR
+ -t 1.003724285 -s 9 -d 0 -p AODVUU -e 48 -c 2 -a 0 -i 743 -k RTR 
- -t 1.003724285 -s 9 -d 0 -p AODVUU -e 48 -c 2 -a 0 -i 743 -k RTR