n -t * -s 0  -x 100 -y 100 -Z 0 -z 25  -v circle -c black
n -t * -s 1  -x 300 -y 100 -Z 0 -z 25  -v circle -c black
n -t * -s 2  -x 500 -y 100 -Z 0 -z 25  -v circle -c black
n -t * -s 3  -x 700 -y 100 -Z 0 -z 25  -v circle -c black
V -t * -v 1.0a5 -a 0
W -t * -x 700 -y 700
A -t * -n 1 -p 0 -o 0x7fffffff -c 30 -a 1
A -t * -h 1 -m 1073741823 -s 0
+ -t 0.000000000 -s 0 -d -1 -p cbr -e 1000 -c 2 -a 0 -i 0 -k AGT 
- -t 0.000000000 -s 0 -d -1 -p cbr -e 1000 -c 2 -a 0 -i 0 -k AGT
h -t 0.000000000 -s 0 -d -1 -p cbr -e 1000 -c 2 -a 0 -i 0 -k AGT
+ -t 0.000006792 -s 0 -d 0 -p AODVUU -e 62 -c 2 -a 0 -i 1 -k RTR 
- -t 0.000006792 -s 0 -d 0 -p AODVUU -e 62 -c 2 -a 0 -i 1 -k RTR
h -t 0.000006792 -s 0 -d 0 -p AODVUU -e 62 -c 2 -a 0 -i 1 -k RTR
+ -t 0.000006792 -s 0 -d 0 -p AODVUU -e 62 -c 2 -a 0 -i 1 -k RTR 
- -t 0.000006792 -s 0 -d 0 -p AODVUU -e 62 -c 2 -a 0 -i 1 -k RTR
h -t 0.000006792 -s 0 -d 0 -p AODVUU -e 62 -c 2 -a 0 -i 1 -k RTR
+ -t 0.000006792 -s 0 -d 0 -p AODVUU -e 62 -c 2 -a 0 -i 1 -k RTR 
- -t 0.000006792 -s 0 -d 0 -p AODVUU -e 62 -c 2 -a 0 -i 1 -k RTR
h -t 0.000006792 -s 0 -d 0 -p AODVUU -e 62 -c 2 -a 0 -i 1 -k RTR
+ -t 0.000284093 -s 0 -d 0 -p AODVUU -e 62 -c 2 -a 0 -i 3 -k RTR 
- -t 0.000284093 -s 0 -d 0 -p AODVUU -e 62 -c 2 -a 0 -i 3 -k RTR
h -t 0.000284093 -s 0 -d 0 -p AODVUU -e 62 -c 2 -a 0 -i 3 -k RTR
+ -t 0.000284093 -s 0 -d 0 -p AODVUU -e 62 -c 2 -a 0 -i 3 -k RTR 
- -t 0.000284093 -s 0 -d 0 -p AODVUU -e 62 -c 2 -a 0 -i 3 -k RTR
h -t 0.000284093 -s 0 -d 0 -p AODVUU -e 62 -c 2 -a 0 -i 3 -k RTR
+ -t 0.000284093 -s 0 -d 0 -p AODVUU -e 62 -c 2 -a 0 -i 3 -k RTR 
- -t 0.000284093 -s 0 -d 0 -p AODVUU -e 62 -c 2 -a 0 -i 3 -k RTR
h -t 0.000284093 -s 0 -d 0 -p AODVUU -e 62 -c 2 -a 0 -i 3 -k RTR
r -t 0.001067458 -s 1 -d 0 -p AODVUU -e 62 -c 2 -a 0 -i 1 -k RTR
r -t 0.001367458 -s 1 -d 0 -p AODVUU -e 62 -c 2 -a 0 -i 1 -k RTR
r -t 0.001387458 -s 1 -d 0 -p AODVUU -e 62 -c 2 -a 0 -i 1 -k RTR
+ -t 0.002223349 -s 1 -d 0 -p AODVUU -e 62 -c 2 -a 0 -i 8 -k RTR 
- -t 0.002223349 -s 1 -d 0 -p AODVUU -e 62 -c 2 -a 0 -i 8 -k RTR
h -t 0.002223349 -s 1 -d 0 -p AODVUU -e 62 -c 2 -a 0 -i 8 -k RTR
+ -t 0.002223349 -s 1 -d 0 -p AODVUU -e 62 -c 2 -a 0 -i 8 -k RTR 
- -t 0.002223349 -s 1 -d 0 -p AODVUU -e 62 -c 2 -a 0 -i 8 -k RTR
h -t 0.002223349 -s 1 -d 0 -p AODVUU -e 62 -c 2 -a 0 -i 8 -k RTR
+ -t 0.002223349 -s 1 -d 0 -p AODVUU -e 62 -c 2 -a 0 -i 8 -k RTR 
- -t 0.002223349 -s 1 -d 0 -p AODVUU -e 62 -c 2 -a 0 -i 8 -k RTR
h -t 0.002223349 -s 1 -d 0 -p AODVUU -e 62 -c 2 -a 0 -i 8 -k RTR
r -t 0.002237458 -s 1 -d 0 -p AODVUU -e 62 -c 2 -a 0 -i 3 -k RTR
r -t 0.002637458 -s 1 -d 0 -p AODVUU -e 62 -c 2 -a 0 -i 3 -k RTR
r -t 0.002637458 -s 1 -d 0 -p AODVUU -e 62 -c 2 -a 0 -i 3 -k RTR
r -t 0.003764016 -s 0 -d 0 -p AODVUU -e 62 -c 2 -a 0 -i 8 -k RTR
r -t 0.003764016 -s 2 -d 0 -p AODVUU -e 62 -c 2 -a 0 -i 8 -k RTR
r -t 0.003808125 -s 0 -d 0 -p AODVUU -e 62 -c 2 -a 0 -i 8 -k RTR
r -t 0.003808125 -s 2 -d 0 -p AODVUU -e 62 -c 2 -a 0 -i 8 -k RTR
r -t 0.003888125 -s 0 -d 0 -p AODVUU -e 62 -c 2 -a 0 -i 8 -k RTR
r -t 0.003888125 -s 2 -d 0 -p AODVUU -e 62 -c 2 -a 0 -i 8 -k RTR
+ -t 0.004650366 -s 1 -d 0 -p AODVUU -e 62 -c 2 -a 0 -i 7 -k RTR 
- -t 0.004650366 -s 1 -d 0 -p AODVUU -e 62 -c 2 -a 0 -i 7 -k RTR
h -t 0.004650366 -s 1 -d 0 -p AODVUU -e 62 -c 2 -a 0 -i 7 -k RTR
+ -t 0.004650366 -s 1 -d 0 -p AODVUU -e 62 -c 2 -a 0 -i 7 -k RTR 
- -t 0.004650366 -s 1 -d 0 -p AODVUU -e 62 -c 2 -a 0 -i 7 -k RTR
h -t 0.004650366 -s 1 -d 0 -p AODVUU -e 62 -c 2 -a 0 -i 7 -k RTR
+ -t 0.004650366 -s 1 -d 0 -p AODVUU -e 62 -c 2 -a 0 -i 7 -k RTR 
- -t 0.004650366 -s 1 -d 0 -p AODVUU -e 62 -c 2 -a 0 -i 7 -k RTR
h -t 0.004650366 -s 1 -d 0 -p AODVUU -e 62 -c 2 -a 0 -i 7 -k RTR
r -t 0.005751033 -s 0 -d 0 -p AODVUU -e 62 -c 2 -a 0 -i 7 -k RTR
r -t 0.005751033 -s 2 -d 0 -p AODVUU -e 62 -c 2 -a 0 -i 7 -k RTR
+ -t 0.005759493 -s 1 -d 0 -p AODVUU -e 62 -c 2 -a 0 -i 5 -k RTR 
- -t 0.005759493 -s 1 -d 0 -p AODVUU -e 62 -c 2 -a 0 -i 5 -k RTR
h -t 0.005759493 -s 1 -d 0 -p AODVUU -e 62 -c 2 -a 0 -i 5 -k RTR
+ -t 0.005759493 -s 1 -d 0 -p AODVUU -e 62 -c 2 -a 0 -i 5 -k RTR 
- -t 0.005759493 -s 1 -d 0 -p AODVUU -e 62 -c 2 -a 0 -i 5 -k RTR
h -t 0.005759493 -s 1 -d 0 -p AODVUU -e 62 -c 2 -a 0 -i 5 -k RTR
+ -t 0.005759493 -s 1 -d 0 -p AODVUU -e 62 -c 2 -a 0 -i 5 -k RTR 
- -t 0.005759493 -s 1 -d 0 -p AODVUU -e 62 -c 2 -a 0 -i 5 -k RTR
h -t 0.005759493 -s 1 -d 0 -p AODVUU -e 62 -c 2 -a 0 -i 5 -k RTR
r -t 0.006011033 -s 0 -d 0 -p AODVUU -e 62 -c 2 -a 0 -i 7 -k RTR
r -t 0.006011033 -s 2 -d 0 -p AODVUU -e 62 -c 2 -a 0 -i 7 -k RTR
r -t 0.006071033 -s 0 -d 0 -p AODVUU -e 62 -c 2 -a 0 -i 7 -k RTR
r -t 0.006071033 -s 2 -d 0 -p AODVUU -e 62 -c 2 -a 0 -i 7 -k RTR
r -t 0.007121033 -s 0 -d 0 -p AODVUU -e 62 -c 2 -a 0 -i 5 -k RTR
r -t 0.007121033 -s 2 -d 0 -p AODVUU -e 62 -c 2 -a 0 -i 5 -k RTR
r -t 0.007161033 -s 0 -d 0 -p AODVUU -e 62 -c 2 -a 0 -i 5 -k RTR
r -t 0.007161033 -s 2 -d 0 -p AODVUU -e 62 -c 2 -a 0 -i 5 -k RTR
r -t 0.007161033 -s 0 -d 0 -p AODVUU -e 62 -c 2 -a 0 -i 5 -k RTR
r -t 0.007161033 -s 2 -d 0 -p AODVUU -e 62 -c 2 -a 0 -i 5 -k RTR
+ -t 0.008925775 -s 2 -d 0 -p AODVUU -e 62 -c 2 -a 0 -i 10 -k RTR 
- -t 0.008925775 -s 2 -d 0 -p AODVUU -e 62 -c 2 -a 0 -i 10 -k RTR
h -t 0.008925775 -s 2 -d 0 -p AODVUU -e 62 -c 2 -a 0 -i 10 -k RTR
+ -t 0.008925775 -s 2 -d 0 -p AODVUU -e 62 -c 2 -a 0 -i 10 -k RTR 
- -t 0.008925775 -s 2 -d 0 -p AODVUU -e 62 -c 2 -a 0 -i 10 -k RTR
h -t 0.008925775 -s 2 -d 0 -p AODVUU -e 62 -c 2 -a 0 -i 10 -k RTR
+ -t 0.008925775 -s 2 -d 0 -p AODVUU -e 62 -c 2 -a 0 -i 10 -k RTR 
- -t 0.008925775 -s 2 -d 0 -p AODVUU -e 62 -c 2 -a 0 -i 10 -k RTR
h -t 0.008925775 -s 2 -d 0 -p AODVUU -e 62 -c 2 -a 0 -i 10 -k RTR
+ -t 0.010000000 -s 0 -d -1 -p cbr -e 1000 -c 2 -a 0 -i 16 -k AGT 
- -t 0.010000000 -s 0 -d -1 -p cbr -e 1000 -c 2 -a 0 -i 16 -k AGT
h -t 0.010000000 -s 0 -d -1 -p cbr -e 1000 -c 2 -a 0 -i 16 -k AGT
r -t 0.010186442 -s 1 -d 0 -p AODVUU -e 62 -c 2 -a 0 -i 10 -k RTR
r -t 0.010186442 -s 3 -d 0 -p AODVUU -e 62 -c 2 -a 0 -i 10 -k RTR
+ -t 0.010186442 -s 3 -d 2 -p AODVUU -e 58 -c 2 -a 0 -i 17 -k RTR 
- -t 0.010186442 -s 3 -d 2 -p AODVUU -e 58 -c 2 -a 0 -i 17 -k RTR
h -t 0.010186442 -s 3 -d 2 -p AODVUU -e 58 -c 2 -a 0 -i 17 -k RTR
r -t 0.010206442 -s 1 -d 0 -p AODVUU -e 62 -c 2 -a 0 -i 10 -k RTR
r -t 0.010206442 -s 3 -d 0 -p AODVUU -e 62 -c 2 -a 0 -i 10 -k RTR
r -t 0.010506442 -s 1 -d 0 -p AODVUU -e 62 -c 2 -a 0 -i 10 -k RTR
r -t 0.010506442 -s 3 -d 0 -p AODVUU -e 62 -c 2 -a 0 -i 10 -k RTR
+ -t 0.011117614 -s 0 -d 0 -p AODVUU -e 62 -c 2 -a 0 -i 2 -k RTR 
- -t 0.011117614 -s 0 -d 0 -p AODVUU -e 62 -c 2 -a 0 -i 2 -k RTR
h -t 0.011117614 -s 0 -d 0 -p AODVUU -e 62 -c 2 -a 0 -i 2 -k RTR
+ -t 0.011117614 -s 0 -d 0 -p AODVUU -e 62 -c 2 -a 0 -i 2 -k RTR 
- -t 0.011117614 -s 0 -d 0 -p AODVUU -e 62 -c 2 -a 0 -i 2 -k RTR
h -t 0.011117614 -s 0 -d 0 -p AODVUU -e 62 -c 2 -a 0 -i 2 -k RTR
+ -t 0.011117614 -s 0 -d 0 -p AODVUU -e 62 -c 2 -a 0 -i 2 -k RTR 
- -t 0.011117614 -s 0 -d 0 -p AODVUU -e 62 -c 2 -a 0 -i 2 -k RTR
h -t 0.011117614 -s 0 -d 0 -p AODVUU -e 62 -c 2 -a 0 -i 2 -k RTR
+ -t 0.011937730 -s 2 -d 0 -p AODVUU -e 62 -c 2 -a 0 -i 11 -k RTR 
- -t 0.011937730 -s 2 -d 0 -p AODVUU -e 62 -c 2 -a 0 -i 11 -k RTR
h -t 0.011937730 -s 2 -d 0 -p AODVUU -e 62 -c 2 -a 0 -i 11 -k RTR
+ -t 0.011937730 -s 2 -d 0 -p AODVUU -e 62 -c 2 -a 0 -i 11 -k RTR 
- -t 0.011937730 -s 2 -d 0 -p AODVUU -e 62 -c 2 -a 0 -i 11 -k RTR
h -t 0.011937730 -s 2 -d 0 -p AODVUU -e 62 -c 2 -a 0 -i 11 -k RTR
+ -t 0.011937730 -s 2 -d 0 -p AODVUU -e 62 -c 2 -a 0 -i 11 -k RTR 
- -t 0.011937730 -s 2 -d 0 -p AODVUU -e 62 -c 2 -a 0 -i 11 -k RTR
h -t 0.011937730 -s 2 -d 0 -p AODVUU -e 62 -c 2 -a 0 -i 11 -k RTR
r -t 0.012358281 -s 1 -d 0 -p AODVUU -e 62 -c 2 -a 0 -i 2 -k RTR
r -t 0.012458281 -s 1 -d 0 -p AODVUU -e 62 -c 2 -a 0 -i 2 -k RTR
r -t 0.012458281 -s 1 -d 0 -p AODVUU -e 62 -c 2 -a 0 -i 2 -k RTR
r -t 0.013733614 -s 1 -d 0 -p AODVUU -e 62 -c 2 -a 0 -i 11 -k RTR
r -t 0.013733614 -s 3 -d 0 -p AODVUU -e 62 -c 2 -a 0 -i 11 -k RTR
+ -t 0.013844761 -s 1 -d 0 -p AODVUU -e 62 -c 2 -a 0 -i 6 -k RTR 
- -t 0.013844761 -s 1 -d 0 -p AODVUU -e 62 -c 2 -a 0 -i 6 -k RTR
h -t 0.013844761 -s 1 -d 0 -p AODVUU -e 62 -c 2 -a 0 -i 6 -k RTR
+ -t 0.013844761 -s 1 -d 0 -p AODVUU -e 62 -c 2 -a 0 -i 6 -k RTR 
- -t 0.013844761 -s 1 -d 0 -p AODVUU -e 62 -c 2 -a 0 -i 6 -k RTR
h -t 0.013844761 -s 1 -d 0 -p AODVUU -e 62 -c 2 -a 0 -i 6 -k RTR
+ -t 0.013844761 -s 1 -d 0 -p AODVUU -e 62 -c 2 -a 0 -i 6 -k RTR 
- -t 0.013844761 -s 1 -d 0 -p AODVUU -e 62 -c 2 -a 0 -i 6 -k RTR
h -t 0.013844761 -s 1 -d 0 -p AODVUU -e 62 -c 2 -a 0 -i 6 -k RTR
+ -t 0.014136992 -s 2 -d 0 -p AODVUU -e 62 -c 2 -a 0 -i 12 -k RTR 
- -t 0.014136992 -s 2 -d 0 -p AODVUU -e 62 -c 2 -a 0 -i 12 -k RTR
h -t 0.014136992 -s 2 -d 0 -p AODVUU -e 62 -c 2 -a 0 -i 12 -k RTR
+ -t 0.014136992 -s 2 -d 0 -p AODVUU -e 62 -c 2 -a 0 -i 12 -k RTR 
- -t 0.014136992 -s 2 -d 0 -p AODVUU -e 62 -c 2 -a 0 -i 12 -k RTR
h -t 0.014136992 -s 2 -d 0 -p AODVUU -e 62 -c 2 -a 0 -i 12 -k RTR
+ -t 0.014136992 -s 2 -d 0 -p AODVUU -e 62 -c 2 -a 0 -i 12 -k RTR 
- -t 0.014136992 -s 2 -d 0 -p AODVUU -e 62 -c 2 -a 0 -i 12 -k RTR
h -t 0.014136992 -s 2 -d 0 -p AODVUU -e 62 -c 2 -a 0 -i 12 -k RTR
+ -t 0.014168811 -s 1 -d 0 -p AODVUU -e 62 -c 2 -a 0 -i 9 -k RTR 
- -t 0.014168811 -s 1 -d 0 -p AODVUU -e 62 -c 2 -a 0 -i 9 -k RTR
h -t 0.014168811 -s 1 -d 0 -p AODVUU -e 62 -c 2 -a 0 -i 9 -k RTR
+ -t 0.014168811 -s 1 -d 0 -p AODVUU -e 62 -c 2 -a 0 -i 9 -k RTR 
- -t 0.014168811 -s 1 -d 0 -p AODVUU -e 62 -c 2 -a 0 -i 9 -k RTR
h -t 0.014168811 -s 1 -d 0 -p AODVUU -e 62 -c 2 -a 0 -i 9 -k RTR
+ -t 0.014168811 -s 1 -d 0 -p AODVUU -e 62 -c 2 -a 0 -i 9 -k RTR 
- -t 0.014168811 -s 1 -d 0 -p AODVUU -e 62 -c 2 -a 0 -i 9 -k RTR
h -t 0.014168811 -s 1 -d 0 -p AODVUU -e 62 -c 2 -a 0 -i 9 -k RTR
r -t 0.014313614 -s 1 -d 0 -p AODVUU -e 62 -c 2 -a 0 -i 11 -k RTR
r -t 0.014313614 -s 3 -d 0 -p AODVUU -e 62 -c 2 -a 0 -i 11 -k RTR
r -t 0.015205428 -s 0 -d 0 -p AODVUU -e 62 -c 2 -a 0 -i 6 -k RTR
r -t 0.015205428 -s 2 -d 0 -p AODVUU -e 62 -c 2 -a 0 -i 6 -k RTR
r -t 0.015343614 -s 1 -d 0 -p AODVUU -e 62 -c 2 -a 0 -i 12 -k RTR
r -t 0.015343614 -s 3 -d 0 -p AODVUU -e 62 -c 2 -a 0 -i 12 -k RTR
r -t 0.015520133 -s 1 -d 0 -p AODVUU -e 62 -c 2 -a 0 -i 12 -k RTR
r -t 0.015520133 -s 3 -d 0 -p AODVUU -e 62 -c 2 -a 0 -i 12 -k RTR
r -t 0.016414281 -s 0 -d 0 -p AODVUU -e 62 -c 2 -a 0 -i 6 -k RTR
r -t 0.016414281 -s 2 -d 0 -p AODVUU -e 62 -c 2 -a 0 -i 6 -k RTR
r -t 0.016456094 -s 1 -d 0 -p AODVUU -e 62 -c 2 -a 0 -i 12 -k RTR
r -t 0.016456094 -s 3 -d 0 -p AODVUU -e 62 -c 2 -a 0 -i 12 -k RTR
r -t 0.016530800 -s 0 -d 0 -p AODVUU -e 62 -c 2 -a 0 -i 6 -k RTR
r -t 0.016530800 -s 2 -d 0 -p AODVUU -e 62 -c 2 -a 0 -i 6 -k RTR
+ -t 0.017396979 -s 1 -d 0 -p AODVUU -e 62 -c 2 -a 0 -i 4 -k RTR 
- -t 0.017396979 -s 1 -d 0 -p AODVUU -e 62 -c 2 -a 0 -i 4 -k RTR
h -t 0.017396979 -s 1 -d 0 -p AODVUU -e 62 -c 2 -a 0 -i 4 -k RTR
+ -t 0.017396979 -s 1 -d 0 -p AODVUU -e 62 -c 2 -a 0 -i 4 -k RTR 
- -t 0.017396979 -s 1 -d 0 -p AODVUU -e 62 -c 2 -a 0 -i 4 -k RTR
h -t 0.017396979 -s 1 -d 0 -p AODVUU -e 62 -c 2 -a 0 -i 4 -k RTR
+ -t 0.017396979 -s 1 -d 0 -p AODVUU -e 62 -c 2 -a 0 -i 4 -k RTR 
- -t 0.017396979 -s 1 -d 0 -p AODVUU -e 62 -c 2 -a 0 -i 4 -k RTR
h -t 0.017396979 -s 1 -d 0 -p AODVUU -e 62 -c 2 -a 0 -i 4 -k RTR
+ -t 0.017654262 -s 2 -d 0 -p AODVUU -e 62 -c 2 -a 0 -i 13 -k RTR 
- -t 0.017654262 -s 2 -d 0 -p AODVUU -e 62 -c 2 -a 0 -i 13 -k RTR
h -t 0.017654262 -s 2 -d 0 -p AODVUU -e 62 -c 2 -a 0 -i 13 -k RTR
+ -t 0.017654262 -s 2 -d 0 -p AODVUU -e 62 -c 2 -a 0 -i 13 -k RTR 
- -t 0.017654262 -s 2 -d 0 -p AODVUU -e 62 -c 2 -a 0 -i 13 -k RTR
h -t 0.017654262 -s 2 -d 0 -p AODVUU -e 62 -c 2 -a 0 -i 13 -k RTR
+ -t 0.017654262 -s 2 -d 0 -p AODVUU -e 62 -c 2 -a 0 -i 13 -k RTR 
- -t 0.017654262 -s 2 -d 0 -p AODVUU -e 62 -c 2 -a 0 -i 13 -k RTR
h -t 0.017654262 -s 2 -d 0 -p AODVUU -e 62 -c 2 -a 0 -i 13 -k RTR
r -t 0.017661466 -s 1 -d 0 -p AODVUU -e 62 -c 2 -a 0 -i 11 -k RTR
r -t 0.017661466 -s 3 -d 0 -p AODVUU -e 62 -c 2 -a 0 -i 11 -k RTR
r -t 0.017706761 -s 0 -d 0 -p AODVUU -e 62 -c 2 -a 0 -i 9 -k RTR
r -t 0.017706761 -s 2 -d 0 -p AODVUU -e 62 -c 2 -a 0 -i 9 -k RTR
r -t 0.017724281 -s 0 -d 0 -p AODVUU -e 62 -c 2 -a 0 -i 9 -k RTR
r -t 0.017724281 -s 2 -d 0 -p AODVUU -e 62 -c 2 -a 0 -i 9 -k RTR
+ -t 0.018737762 -s 2 -d 1 -p AODVUU -e 58 -c 2 -a 0 -i 18 -k RTR 
- -t 0.018737762 -s 2 -d 1 -p AODVUU -e 58 -c 2 -a 0 -i 18 -k RTR
h -t 0.018737762 -s 2 -d 1 -p AODVUU -e 58 -c 2 -a 0 -i 18 -k RTR
r -t 0.018796761 -s 0 -d 0 -p AODVUU -e 62 -c 2 -a 0 -i 4 -k RTR
r -t 0.018796761 -s 2 -d 0 -p AODVUU -e 62 -c 2 -a 0 -i 4 -k RTR
r -t 0.018934948 -s 1 -d 0 -p AODVUU -e 62 -c 2 -a 0 -i 13 -k RTR
r -t 0.018934948 -s 3 -d 0 -p AODVUU -e 62 -c 2 -a 0 -i 13 -k RTR
+ -t 0.018934948 -s 3 -d 2 -p AODVUU -e 58 -c 2 -a 0 -i 19 -k RTR 
- -t 0.018934948 -s 3 -d 2 -p AODVUU -e 58 -c 2 -a 0 -i 19 -k RTR
h -t 0.018934948 -s 3 -d 2 -p AODVUU -e 58 -c 2 -a 0 -i 19 -k RTR
r -t 0.019827428 -s 1 -d 0 -p AODVUU -e 62 -c 2 -a 0 -i 13 -k RTR
r -t 0.019827428 -s 3 -d 0 -p AODVUU -e 62 -c 2 -a 0 -i 13 -k RTR
+ -t 0.020000000 -s 0 -d -1 -p cbr -e 1000 -c 2 -a 0 -i 20 -k AGT 
- -t 0.020000000 -s 0 -d -1 -p cbr -e 1000 -c 2 -a 0 -i 20 -k AGT
h -t 0.020000000 -s 0 -d -1 -p cbr -e 1000 -c 2 -a 0 -i 20 -k AGT
r -t 0.020005614 -s 0 -d 0 -p AODVUU -e 62 -c 2 -a 0 -i 4 -k RTR
r -t 0.020005614 -s 2 -d 0 -p AODVUU -e 62 -c 2 -a 0 -i 4 -k RTR
r -t 0.020162429 -s 1 -d 0 -p AODVUU -e 62 -c 2 -a 0 -i 13 -k RTR
r -t 0.020162429 -s 3 -d 0 -p AODVUU -e 62 -c 2 -a 0 -i 13 -k RTR
+ -t 0.020162429 -s 3 -d 2 -p AODVUU -e 58 -c 2 -a 0 -i 21 -k RTR 
- -t 0.020162429 -s 3 -d 2 -p AODVUU -e 58 -c 2 -a 0 -i 21 -k RTR
h -t 0.020162429 -s 3 -d 2 -p AODVUU -e 58 -c 2 -a 0 -i 21 -k RTR
+ -t 0.020604629 -s 2 -d 0 -p AODVUU -e 62 -c 2 -a 0 -i 15 -k RTR 
- -t 0.020604629 -s 2 -d 0 -p AODVUU -e 62 -c 2 -a 0 -i 15 -k RTR
h -t 0.020604629 -s 2 -d 0 -p AODVUU -e 62 -c 2 -a 0 -i 15 -k RTR
+ -t 0.020604629 -s 2 -d 0 -p AODVUU -e 62 -c 2 -a 0 -i 15 -k RTR 
- -t 0.020604629 -s 2 -d 0 -p AODVUU -e 62 -c 2 -a 0 -i 15 -k RTR
h -t 0.020604629 -s 2 -d 0 -p AODVUU -e 62 -c 2 -a 0 -i 15 -k RTR
+ -t 0.020604629 -s 2 -d 0 -p AODVUU -e 62 -c 2 -a 0 -i 15 -k RTR 
- -t 0.020604629 -s 2 -d 0 -p AODVUU -e 62 -c 2 -a 0 -i 15 -k RTR
h -t 0.020604629 -s 2 -d 0 -p AODVUU -e 62 -c 2 -a 0 -i 15 -k RTR
+ -t 0.021049470 -s 2 -d 0 -p AODVUU -e 62 -c 2 -a 0 -i 14 -k RTR 
- -t 0.021049470 -s 2 -d 0 -p AODVUU -e 62 -c 2 -a 0 -i 14 -k RTR
h -t 0.021049470 -s 2 -d 0 -p AODVUU -e 62 -c 2 -a 0 -i 14 -k RTR
+ -t 0.021049470 -s 2 -d 0 -p AODVUU -e 62 -c 2 -a 0 -i 14 -k RTR 
- -t 0.021049470 -s 2 -d 0 -p AODVUU -e 62 -c 2 -a 0 -i 14 -k RTR
h -t 0.021049470 -s 2 -d 0 -p AODVUU -e 62 -c 2 -a 0 -i 14 -k RTR
+ -t 0.021049470 -s 2 -d 0 -p AODVUU -e 62 -c 2 -a 0 -i 14 -k RTR 
- -t 0.021049470 -s 2 -d 0 -p AODVUU -e 62 -c 2 -a 0 -i 14 -k RTR
h -t 0.021049470 -s 2 -d 0 -p AODVUU -e 62 -c 2 -a 0 -i 14 -k RTR
r -t 0.021453096 -s 0 -d 0 -p AODVUU -e 62 -c 2 -a 0 -i 9 -k RTR
r -t 0.021453096 -s 2 -d 0 -p AODVUU -e 62 -c 2 -a 0 -i 9 -k RTR
r -t 0.022539614 -s 1 -d 0 -p AODVUU -e 62 -c 2 -a 0 -i 15 -k RTR
r -t 0.022539614 -s 3 -d 0 -p AODVUU -e 62 -c 2 -a 0 -i 15 -k RTR
r -t 0.022763762 -s 1 -d 0 -p AODVUU -e 62 -c 2 -a 0 -i 15 -k RTR
r -t 0.022763762 -s 3 -d 0 -p AODVUU -e 62 -c 2 -a 0 -i 15 -k RTR
r -t 0.023621946 -s 1 -d 0 -p AODVUU -e 62 -c 2 -a 0 -i 15 -k RTR
r -t 0.023621946 -s 3 -d 0 -p AODVUU -e 62 -c 2 -a 0 -i 15 -k RTR
r -t 0.023849614 -s 1 -d 0 -p AODVUU -e 62 -c 2 -a 0 -i 14 -k RTR
r -t 0.023849614 -s 3 -d 0 -p AODVUU -e 62 -c 2 -a 0 -i 14 -k RTR
r -t 0.024014429 -s 0 -d 0 -p AODVUU -e 62 -c 2 -a 0 -i 4 -k RTR
+ -t 0.025017576 -s 1 -d 0 -p AODVUU -e 58 -c 2 -a 0 -i 22 -k RTR 
- -t 0.025017576 -s 1 -d 0 -p AODVUU -e 58 -c 2 -a 0 -i 22 -k RTR
h -t 0.025017576 -s 1 -d 0 -p AODVUU -e 58 -c 2 -a 0 -i 22 -k RTR
r -t 0.026502909 -s 1 -d 0 -p AODVUU -e 62 -c 2 -a 0 -i 14 -k RTR
r -t 0.026502909 -s 3 -d 0 -p AODVUU -e 62 -c 2 -a 0 -i 14 -k RTR
r -t 0.026820059 -s 1 -d 0 -p AODVUU -e 62 -c 2 -a 0 -i 14 -k RTR
r -t 0.026820059 -s 3 -d 0 -p AODVUU -e 62 -c 2 -a 0 -i 14 -k RTR
+ -t 0.030000000 -s 0 -d -1 -p cbr -e 1000 -c 2 -a 0 -i 23 -k AGT 
- -t 0.030000000 -s 0 -d -1 -p cbr -e 1000 -c 2 -a 0 -i 23 -k AGT
h -t 0.030000000 -s 0 -d -1 -p cbr -e 1000 -c 2 -a 0 -i 23 -k AGT
+ -t 0.031541577 -s 0 -d 1 -p cbr -e 1020 -c 2 -a 0 -i 0 -k RTR 
- -t 0.031541577 -s 0 -d 1 -p cbr -e 1020 -c 2 -a 0 -i 0 -k RTR
h -t 0.031541577 -s 0 -d 1 -p cbr -e 1020 -c 2 -a 0 -i 0 -k RTR
+ -t 0.036541577 -s 0 -d 1 -p cbr -e 1020 -c 2 -a 0 -i 16 -k RTR 
- -t 0.036541577 -s 0 -d 1 -p cbr -e 1020 -c 2 -a 0 -i 16 -k RTR
h -t 0.036541577 -s 0 -d 1 -p cbr -e 1020 -c 2 -a 0 -i 16 -k RTR
+ -t 0.036782577 -s 1 -d 2 -p cbr -e 1020 -c 2 -a 0 -i 0 -k RTR 
- -t 0.036782577 -s 1 -d 2 -p cbr -e 1020 -c 2 -a 0 -i 0 -k RTR
h -t 0.036782577 -s 1 -d 2 -p cbr -e 1020 -c 2 -a 0 -i 0 -k RTR
+ -t 0.039578725 -s 1 -d 2 -p cbr -e 1020 -c 2 -a 0 -i 16 -k RTR 
- -t 0.039578725 -s 1 -d 2 -p cbr -e 1020 -c 2 -a 0 -i 16 -k RTR
h -t 0.039578725 -s 1 -d 2 -p cbr -e 1020 -c 2 -a 0 -i 16 -k RTR
+ -t 0.040000000 -s 0 -d -1 -p cbr -e 1000 -c 2 -a 0 -i 24 -k AGT 
- -t 0.040000000 -s 0 -d -1 -p cbr -e 1000 -c 2 -a 0 -i 24 -k AGT
h -t 0.040000000 -s 0 -d -1 -p cbr -e 1000 -c 2 -a 0 -i 24 -k AGT
+ -t 0.040000000 -s 0 -d 1 -p cbr -e 1020 -c 2 -a 0 -i 24 -k RTR 
- -t 0.040000000 -s 0 -d 1 -p cbr -e 1020 -c 2 -a 0 -i 24 -k RTR
h -t 0.040000000 -s 0 -d 1 -p cbr -e 1020 -c 2 -a 0 -i 24 -k RTR
+ -t 0.041541577 -s 0 -d 1 -p cbr -e 1020 -c 2 -a 0 -i 20 -k RTR 
- -t 0.041541577 -s 0 -d 1 -p cbr -e 1020 -c 2 -a 0 -i 20 -k RTR
h -t 0.041541577 -s 0 -d 1 -p cbr -e 1020 -c 2 -a 0 -i 20 -k RTR
+ -t 0.042551481 -s 1 -d 2 -p cbr -e 1020 -c 2 -a 0 -i 24 -k RTR 
- -t 0.042551481 -s 1 -d 2 -p cbr -e 1020 -c 2 -a 0 -i 24 -k RTR
h -t 0.042551481 -s 1 -d 2 -p cbr -e 1020 -c 2 -a 0 -i 24 -k RTR
+ -t 0.042583577 -s 2 -d 3 -p cbr -e 1020 -c 2 -a 0 -i 0 -k RTR 
- -t 0.042583577 -s 2 -d 3 -p cbr -e 1020 -c 2 -a 0 -i 0 -k RTR
h -t 0.042583577 -s 2 -d 3 -p cbr -e 1020 -c 2 -a 0 -i 0 -k RTR
+ -t 0.045399725 -s 2 -d 3 -p cbr -e 1020 -c 2 -a 0 -i 16 -k RTR 
- -t 0.045399725 -s 2 -d 3 -p cbr -e 1020 -c 2 -a 0 -i 16 -k RTR
h -t 0.045399725 -s 2 -d 3 -p cbr -e 1020 -c 2 -a 0 -i 16 -k RTR
+ -t 0.045607630 -s 1 -d 2 -p cbr -e 1020 -c 2 -a 0 -i 20 -k RTR 
- -t 0.045607630 -s 1 -d 2 -p cbr -e 1020 -c 2 -a 0 -i 20 -k RTR
h -t 0.045607630 -s 1 -d 2 -p cbr -e 1020 -c 2 -a 0 -i 20 -k RTR
+ -t 0.046541577 -s 0 -d 1 -p cbr -e 1020 -c 2 -a 0 -i 23 -k RTR 
- -t 0.046541577 -s 0 -d 1 -p cbr -e 1020 -c 2 -a 0 -i 23 -k RTR
h -t 0.046541577 -s 0 -d 1 -p cbr -e 1020 -c 2 -a 0 -i 23 -k RTR
r -t 0.048044577 -s 3 -d 3 -p cbr -e 1000 -c 2 -a 0 -i 0 -k AGT
+ -t 0.048675874 -s 2 -d 3 -p cbr -e 1020 -c 2 -a 0 -i 24 -k RTR 
- -t 0.048675874 -s 2 -d 3 -p cbr -e 1020 -c 2 -a 0 -i 24 -k RTR
h -t 0.048675874 -s 2 -d 3 -p cbr -e 1020 -c 2 -a 0 -i 24 -k RTR
+ -t 0.049253059 -s 1 -d 2 -p cbr -e 1020 -c 2 -a 0 -i 23 -k RTR 
- -t 0.049253059 -s 1 -d 2 -p cbr -e 1020 -c 2 -a 0 -i 23 -k RTR
h -t 0.049253059 -s 1 -d 2 -p cbr -e 1020 -c 2 -a 0 -i 23 -k RTR
+ -t 0.050000000 -s 0 -d -1 -p cbr -e 1000 -c 2 -a 0 -i 25 -k AGT 
- -t 0.050000000 -s 0 -d -1 -p cbr -e 1000 -c 2 -a 0 -i 25 -k AGT
h -t 0.050000000 -s 0 -d -1 -p cbr -e 1000 -c 2 -a 0 -i 25 -k AGT
+ -t 0.050000000 -s 0 -d 1 -p cbr -e 1020 -c 2 -a 0 -i 25 -k RTR 
- -t 0.050000000 -s 0 -d 1 -p cbr -e 1020 -c 2 -a 0 -i 25 -k RTR
h -t 0.050000000 -s 0 -d 1 -p cbr -e 1020 -c 2 -a 0 -i 25 -k RTR
r -t 0.051380725 -s 3 -d 3 -p cbr -e 1000 -c 2 -a 0 -i 16 -k AGT
+ -t 0.051652022 -s 2 -d 3 -p cbr -e 1020 -c 2 -a 0 -i 20 -k RTR 
- -t 0.051652022 -s 2 -d 3 -p cbr -e 1020 -c 2 -a 0 -i 20 -k RTR
h -t 0.051652022 -s 2 -d 3 -p cbr -e 1020 -c 2 -a 0 -i 20 -k RTR
+ -t 0.052771481 -s 1 -d 2 -p cbr -e 1020 -c 2 -a 0 -i 25 -k RTR 
- -t 0.052771481 -s 1 -d 2 -p cbr -e 1020 -c 2 -a 0 -i 25 -k RTR
h -t 0.052771481 -s 1 -d 2 -p cbr -e 1020 -c 2 -a 0 -i 25 -k RTR
r -t 0.054176874 -s 3 -d 3 -p cbr -e 1000 -c 2 -a 0 -i 24 -k AGT
+ -t 0.054548170 -s 2 -d 3 -p cbr -e 1020 -c 2 -a 0 -i 23 -k RTR 
- -t 0.054548170 -s 2 -d 3 -p cbr -e 1020 -c 2 -a 0 -i 23 -k RTR
h -t 0.054548170 -s 2 -d 3 -p cbr -e 1020 -c 2 -a 0 -i 23 -k RTR
r -t 0.057513022 -s 3 -d 3 -p cbr -e 1000 -c 2 -a 0 -i 20 -k AGT
+ -t 0.057904318 -s 2 -d 3 -p cbr -e 1020 -c 2 -a 0 -i 25 -k RTR 
- -t 0.057904318 -s 2 -d 3 -p cbr -e 1020 -c 2 -a 0 -i 25 -k RTR
h -t 0.057904318 -s 2 -d 3 -p cbr -e 1020 -c 2 -a 0 -i 25 -k RTR
+ -t 0.060000000 -s 0 -d -1 -p cbr -e 1000 -c 2 -a 0 -i 26 -k AGT 
- -t 0.060000000 -s 0 -d -1 -p cbr -e 1000 -c 2 -a 0 -i 26 -k AGT
h -t 0.060000000 -s 0 -d -1 -p cbr -e 1000 -c 2 -a 0 -i 26 -k AGT
+ -t 0.060000000 -s 0 -d 1 -p cbr -e 1020 -c 2 -a 0 -i 26 -k RTR 
- -t 0.060000000 -s 0 -d 1 -p cbr -e 1020 -c 2 -a 0 -i 26 -k RTR
h -t 0.060000000 -s 0 -d 1 -p cbr -e 1020 -c 2 -a 0 -i 26 -k RTR
r -t 0.060889170 -s 3 -d 3 -p cbr -e 1000 -c 2 -a 0 -i 23 -k AGT
+ -t 0.062751481 -s 1 -d 2 -p cbr -e 1020 -c 2 -a 0 -i 26 -k RTR 
- -t 0.062751481 -s 1 -d 2 -p cbr -e 1020 -c 2 -a 0 -i 26 -k RTR
h -t 0.062751481 -s 1 -d 2 -p cbr -e 1020 -c 2 -a 0 -i 26 -k RTR
r -t 0.064205318 -s 3 -d 3 -p cbr -e 1000 -c 2 -a 0 -i 25 -k AGT
+ -t 0.065422963 -s 2 -d 3 -p cbr -e 1020 -c 2 -a 0 -i 26 -k RTR 
- -t 0.065422963 -s 2 -d 3 -p cbr -e 1020 -c 2 -a 0 -i 26 -k RTR
h -t 0.065422963 -s 2 -d 3 -p cbr -e 1020 -c 2 -a 0 -i 26 -k RTR
r -t 0.068054444 -s 3 -d 3 -p cbr -e 1000 -c 2 -a 0 -i 26 -k AGT
+ -t 0.070000000 -s 0 -d -1 -p cbr -e 1000 -c 2 -a 0 -i 27 -k AGT 
- -t 0.070000000 -s 0 -d -1 -p cbr -e 1000 -c 2 -a 0 -i 27 -k AGT
h -t 0.070000000 -s 0 -d -1 -p cbr -e 1000 -c 2 -a 0 -i 27 -k AGT
+ -t 0.070000000 -s 0 -d 1 -p cbr -e 1020 -c 2 -a 0 -i 27 -k RTR 
- -t 0.070000000 -s 0 -d 1 -p cbr -e 1020 -c 2 -a 0 -i 27 -k RTR
h -t 0.070000000 -s 0 -d 1 -p cbr -e 1020 -c 2 -a 0 -i 27 -k RTR
+ -t 0.072911481 -s 1 -d 2 -p cbr -e 1020 -c 2 -a 0 -i 27 -k RTR 
- -t 0.072911481 -s 1 -d 2 -p cbr -e 1020 -c 2 -a 0 -i 27 -k RTR
h -t 0.072911481 -s 1 -d 2 -p cbr -e 1020 -c 2 -a 0 -i 27 -k RTR
+ -t 0.075942963 -s 2 -d 3 -p cbr -e 1020 -c 2 -a 0 -i 27 -k RTR 
- -t 0.075942963 -s 2 -d 3 -p cbr -e 1020 -c 2 -a 0 -i 27 -k RTR
h -t 0.075942963 -s 2 -d 3 -p cbr -e 1020 -c 2 -a 0 -i 27 -k RTR
r -t 0.078474444 -s 3 -d 3 -p cbr -e 1000 -c 2 -a 0 -i 27 -k AGT
+ -t 0.080000000 -s 0 -d -1 -p cbr -e 1000 -c 2 -a 0 -i 28 -k AGT 
- -t 0.080000000 -s 0 -d -1 -p cbr -e 1000 -c 2 -a 0 -i 28 -k AGT
h -t 0.080000000 -s 0 -d -1 -p cbr -e 1000 -c 2 -a 0 -i 28 -k AGT
+ -t 0.080000000 -s 0 -d 1 -p cbr -e 1020 -c 2 -a 0 -i 28 -k RTR 
- -t 0.080000000 -s 0 -d 1 -p cbr -e 1020 -c 2 -a 0 -i 28 -k RTR
h -t 0.080000000 -s 0 -d 1 -p cbr -e 1020 -c 2 -a 0 -i 28 -k RTR
+ -t 0.082691481 -s 1 -d 2 -p cbr -e 1020 -c 2 -a 0 -i 28 -k RTR 
- -t 0.082691481 -s 1 -d 2 -p cbr -e 1020 -c 2 -a 0 -i 28 -k RTR
h -t 0.082691481 -s 1 -d 2 -p cbr -e 1020 -c 2 -a 0 -i 28 -k RTR
+ -t 0.085722963 -s 2 -d 3 -p cbr -e 1020 -c 2 -a 0 -i 28 -k RTR 
- -t 0.085722963 -s 2 -d 3 -p cbr -e 1020 -c 2 -a 0 -i 28 -k RTR
h -t 0.085722963 -s 2 -d 3 -p cbr -e 1020 -c 2 -a 0 -i 28 -k RTR
r -t 0.088394444 -s 3 -d 3 -p cbr -e 1000 -c 2 -a 0 -i 28 -k AGT
+ -t 0.090000000 -s 0 -d -1 -p cbr -e 1000 -c 2 -a 0 -i 29 -k AGT 
- -t 0.090000000 -s 0 -d -1 -p cbr -e 1000 -c 2 -a 0 -i 29 -k AGT
h -t 0.090000000 -s 0 -d -1 -p cbr -e 1000 -c 2 -a 0 -i 29 -k AGT
+ -t 0.090000000 -s 0 -d 1 -p cbr -e 1020 -c 2 -a 0 -i 29 -k RTR 
- -t 0.090000000 -s 0 -d 1 -p cbr -e 1020 -c 2 -a 0 -i 29 -k RTR
h -t 0.090000000 -s 0 -d 1 -p cbr -e 1020 -c 2 -a 0 -i 29 -k RTR
+ -t 0.092571481 -s 1 -d 2 -p cbr -e 1020 -c 2 -a 0 -i 29 -k RTR 
- -t 0.092571481 -s 1 -d 2 -p cbr -e 1020 -c 2 -a 0 -i 29 -k RTR
h -t 0.092571481 -s 1 -d 2 -p cbr -e 1020 -c 2 -a 0 -i 29 -k RTR
+ -t 0.095582963 -s 2 -d 3 -p cbr -e 1020 -c 2 -a 0 -i 29 -k RTR 
- -t 0.095582963 -s 2 -d 3 -p cbr -e 1020 -c 2 -a 0 -i 29 -k RTR
h -t 0.095582963 -s 2 -d 3 -p cbr -e 1020 -c 2 -a 0 -i 29 -k RTR
r -t 0.098114444 -s 3 -d 3 -p cbr -e 1000 -c 2 -a 0 -i 29 -k AGT
+ -t 0.100000000 -s 0 -d -1 -p cbr -e 1000 -c 2 -a 0 -i 30 -k AGT 
- -t 0.100000000 -s 0 -d -1 -p cbr -e 1000 -c 2 -a 0 -i 30 -k AGT
h -t 0.100000000 -s 0 -d -1 -p cbr -e 1000 -c 2 -a 0 -i 30 -k AGT
+ -t 0.100000000 -s 0 -d 1 -p cbr -e 1020 -c 2 -a 0 -i 30 -k RTR 
- -t 0.100000000 -s 0 -d 1 -p cbr -e 1020 -c 2 -a 0 -i 30 -k RTR
h -t 0.100000000 -s 0 -d 1 -p cbr -e 1020 -c 2 -a 0 -i 30 -k RTR
+ -t 0.102831481 -s 1 -d 2 -p cbr -e 1020 -c 2 -a 0 -i 30 -k RTR 
- -t 0.102831481 -s 1 -d 2 -p cbr -e 1020 -c 2 -a 0 -i 30 -k RTR
h -t 0.102831481 -s 1 -d 2 -p cbr -e 1020 -c 2 -a 0 -i 30 -k RTR
+ -t 0.105702963 -s 2 -d 3 -p cbr -e 1020 -c 2 -a 0 -i 30 -k RTR 
- -t 0.105702963 -s 2 -d 3 -p cbr -e 1020 -c 2 -a 0 -i 30 -k RTR
h -t 0.105702963 -s 2 -d 3 -p cbr -e 1020 -c 2 -a 0 -i 30 -k RTR
r -t 0.108714444 -s 3 -d 3 -p cbr -e 1000 -c 2 -a 0 -i 30 -k AGT
+ -t 0.110000000 -s 0 -d -1 -p cbr -e 1000 -c 2 -a 0 -i 31 -k AGT 
- -t 0.110000000 -s 0 -d -1 -p cbr -e 1000 -c 2 -a 0 -i 31 -k AGT
h -t 0.110000000 -s 0 -d -1 -p cbr -e 1000 -c 2 -a 0 -i 31 -k AGT
+ -t 0.110000000 -s 0 -d 1 -p cbr -e 1020 -c 2 -a 0 -i 31 -k RTR 
- -t 0.110000000 -s 0 -d 1 -p cbr -e 1020 -c 2 -a 0 -i 31 -k RTR
h -t 0.110000000 -s 0 -d 1 -p cbr -e 1020 -c 2 -a 0 -i 31 -k RTR
+ -t 0.113031481 -s 1 -d 2 -p cbr -e 1020 -c 2 -a 0 -i 31 -k RTR 
- -t 0.113031481 -s 1 -d 2 -p cbr -e 1020 -c 2 -a 0 -i 31 -k RTR
h -t 0.113031481 -s 1 -d 2 -p cbr -e 1020 -c 2 -a 0 -i 31 -k RTR
+ -t 0.115642963 -s 2 -d 3 -p cbr -e 1020 -c 2 -a 0 -i 31 -k RTR 
- -t 0.115642963 -s 2 -d 3 -p cbr -e 1020 -c 2 -a 0 -i 31 -k RTR
h -t 0.115642963 -s 2 -d 3 -p cbr -e 1020 -c 2 -a 0 -i 31 -k RTR
r -t 0.118174444 -s 3 -d 3 -p cbr -e 1000 -c 2 -a 0 -i 31 -k AGT
+ -t 0.120000000 -s 0 -d -1 -p cbr -e 1000 -c 2 -a 0 -i 32 -k AGT 
- -t 0.120000000 -s 0 -d -1 -p cbr -e 1000 -c 2 -a 0 -i 32 -k AGT
h -t 0.120000000 -s 0 -d -1 -p cbr -e 1000 -c 2 -a 0 -i 32 -k AGT
+ -t 0.120000000 -s 0 -d 1 -p cbr -e 1020 -c 2 -a 0 -i 32 -k RTR 
- -t 0.120000000 -s 0 -d 1 -p cbr -e 1020 -c 2 -a 0 -i 32 -k RTR
h -t 0.120000000 -s 0 -d 1 -p cbr -e 1020 -c 2 -a 0 -i 32 -k RTR
+ -t 0.122911481 -s 1 -d 2 -p cbr -e 1020 -c 2 -a 0 -i 32 -k RTR 
- -t 0.122911481 -s 1 -d 2 -p cbr -e 1020 -c 2 -a 0 -i 32 -k RTR
h -t 0.122911481 -s 1 -d 2 -p cbr -e 1020 -c 2 -a 0 -i 32 -k RTR
+ -t 0.125502963 -s 2 -d 3 -p cbr -e 1020 -c 2 -a 0 -i 32 -k RTR 
- -t 0.125502963 -s 2 -d 3 -p cbr -e 1020 -c 2 -a 0 -i 32 -k RTR
h -t 0.125502963 -s 2 -d 3 -p cbr -e 1020 -c 2 -a 0 -i 32 -k RTR
r -t 0.128434444 -s 3 -d 3 -p cbr -e 1000 -c 2 -a 0 -i 32 -k AGT
+ -t 0.130000000 -s 0 -d -1 -p cbr -e 1000 -c 2 -a 0 -i 33 -k AGT 
- -t 0.130000000 -s 0 -d -1 -p cbr -e 1000 -c 2 -a 0 -i 33 -k AGT
h -t 0.130000000 -s 0 -d -1 -p cbr -e 1000 -c 2 -a 0 -i 33 -k AGT
+ -t 0.130000000 -s 0 -d 1 -p cbr -e 1020 -c 2 -a 0 -i 33 -k RTR 
- -t 0.130000000 -s 0 -d 1 -p cbr -e 1020 -c 2 -a 0 -i 33 -k RTR
h -t 0.130000000 -s 0 -d 1 -p cbr -e 1020 -c 2 -a 0 -i 33 -k RTR
+ -t 0.132551481 -s 1 -d 2 -p cbr -e 1020 -c 2 -a 0 -i 33 -k RTR 
- -t 0.132551481 -s 1 -d 2 -p cbr -e 1020 -c 2 -a 0 -i 33 -k RTR
h -t 0.132551481 -s 1 -d 2 -p cbr -e 1020 -c 2 -a 0 -i 33 -k RTR
+ -t 0.135082963 -s 2 -d 3 -p cbr -e 1020 -c 2 -a 0 -i 33 -k RTR 
- -t 0.135082963 -s 2 -d 3 -p cbr -e 1020 -c 2 -a 0 -i 33 -k RTR
h -t 0.135082963 -s 2 -d 3 -p cbr -e 1020 -c 2 -a 0 -i 33 -k RTR
r -t 0.138174444 -s 3 -d 3 -p cbr -e 1000 -c 2 -a 0 -i 33 -k AGT
+ -t 0.140000000 -s 0 -d -1 -p cbr -e 1000 -c 2 -a 0 -i 34 -k AGT 
- -t 0.140000000 -s 0 -d -1 -p cbr -e 1000 -c 2 -a 0 -i 34 -k AGT
h -t 0.140000000 -s 0 -d -1 -p cbr -e 1000 -c 2 -a 0 -i 34 -k AGT
+ -t 0.140000000 -s 0 -d 1 -p cbr -e 1020 -c 2 -a 0 -i 34 -k RTR 
- -t 0.140000000 -s 0 -d 1 -p cbr -e 1020 -c 2 -a 0 -i 34 -k RTR
h -t 0.140000000 -s 0 -d 1 -p cbr -e 1020 -c 2 -a 0 -i 34 -k RTR
+ -t 0.142691481 -s 1 -d 2 -p cbr -e 1020 -c 2 -a 0 -i 34 -k RTR 
- -t 0.142691481 -s 1 -d 2 -p cbr -e 1020 -c 2 -a 0 -i 34 -k RTR
h -t 0.142691481 -s 1 -d 2 -p cbr -e 1020 -c 2 -a 0 -i 34 -k RTR
+ -t 0.145582963 -s 2 -d 3 -p cbr -e 1020 -c 2 -a 0 -i 34 -k RTR 
- -t 0.145582963 -s 2 -d 3 -p cbr -e 1020 -c 2 -a 0 -i 34 -k RTR
h -t 0.145582963 -s 2 -d 3 -p cbr -e 1020 -c 2 -a 0 -i 34 -k RTR
r -t 0.148334444 -s 3 -d 3 -p cbr -e 1000 -c 2 -a 0 -i 34 -k AGT
+ -t 0.150000000 -s 0 -d -1 -p cbr -e 1000 -c 2 -a 0 -i 35 -k AGT 
- -t 0.150000000 -s 0 -d -1 -p cbr -e 1000 -c 2 -a 0 -i 35 -k AGT
h -t 0.150000000 -s 0 -d -1 -p cbr -e 1000 -c 2 -a 0 -i 35 -k AGT
+ -t 0.150000000 -s 0 -d 1 -p cbr -e 1020 -c 2 -a 0 -i 35 -k RTR 
- -t 0.150000000 -s 0 -d 1 -p cbr -e 1020 -c 2 -a 0 -i 35 -k RTR
h -t 0.150000000 -s 0 -d 1 -p cbr -e 1020 -c 2 -a 0 -i 35 -k RTR
+ -t 0.152631481 -s 1 -d 2 -p cbr -e 1020 -c 2 -a 0 -i 35 -k RTR 
- -t 0.152631481 -s 1 -d 2 -p cbr -e 1020 -c 2 -a 0 -i 35 -k RTR
h -t 0.152631481 -s 1 -d 2 -p cbr -e 1020 -c 2 -a 0 -i 35 -k RTR
+ -t 0.155622963 -s 2 -d 3 -p cbr -e 1020 -c 2 -a 0 -i 35 -k RTR 
- -t 0.155622963 -s 2 -d 3 -p cbr -e 1020 -c 2 -a 0 -i 35 -k RTR
h -t 0.155622963 -s 2 -d 3 -p cbr -e 1020 -c 2 -a 0 -i 35 -k RTR
r -t 0.158674444 -s 3 -d 3 -p cbr -e 1000 -c 2 -a 0 -i 35 -k AGT
+ -t 0.160000000 -s 0 -d -1 -p cbr -e 1000 -c 2 -a 0 -i 36 -k AGT 
- -t 0.160000000 -s 0 -d -1 -p cbr -e 1000 -c 2 -a 0 -i 36 -k AGT
h -t 0.160000000 -s 0 -d -1 -p cbr -e 1000 -c 2 -a 0 -i 36 -k AGT
+ -t 0.160000000 -s 0 -d 1 -p cbr -e 1020 -c 2 -a 0 -i 36 -k RTR 
- -t 0.160000000 -s 0 -d 1 -p cbr -e 1020 -c 2 -a 0 -i 36 -k RTR
h -t 0.160000000 -s 0 -d 1 -p cbr -e 1020 -c 2 -a 0 -i 36 -k RTR
+ -t 0.162571481 -s 1 -d 2 -p cbr -e 1020 -c 2 -a 0 -i 36 -k RTR 
- -t 0.162571481 -s 1 -d 2 -p cbr -e 1020 -c 2 -a 0 -i 36 -k RTR
h -t 0.162571481 -s 1 -d 2 -p cbr -e 1020 -c 2 -a 0 -i 36 -k RTR
+ -t 0.165362963 -s 2 -d 3 -p cbr -e 1020 -c 2 -a 0 -i 36 -k RTR 
- -t 0.165362963 -s 2 -d 3 -p cbr -e 1020 -c 2 -a 0 -i 36 -k RTR
h -t 0.165362963 -s 2 -d 3 -p cbr -e 1020 -c 2 -a 0 -i 36 -k RTR
r -t 0.168254444 -s 3 -d 3 -p cbr -e 1000 -c 2 -a 0 -i 36 -k AGT
+ -t 0.170000000 -s 0 -d -1 -p cbr -e 1000 -c 2 -a 0 -i 37 -k AGT 